/2024/02_Hotsots_FMOPhore/LE/ALK/FMOPhore/7JY4/7JY4_W47_A_702/7JY4_W47_A_702_FMO_5_H
----- GAMESS execution script 'rungms' -----
This job is running on host gpu-31.cluster.lifesci.dundee.ac.uk
under operating system Linux at Mon 11 Nov 19:29:02 GMT 2024
Available scratch disk space (Kbyte units) at beginning of the job is
Filesystem                    1K-blocks     Used Available Use% Mounted on
/dev/mapper/rhel_gpu--31-root 228559872 39079068 189480804  18% /
GAMESS temporary binary files will be written to /tmp/2029101.1.ddu.q
GAMESS supplementary output files will be written to /2024/02_Hotsots_FMOPhore/LE/ALK/FMOPhore/7JY4/7JY4_W47_A_702/7JY4_W47_A_702_FMO_5_H
Copying input file 7JY4_W47_A_702_FMO_5_H.inp to your run's scratch directory...
cp 7JY4_W47_A_702_FMO_5_H.inp /tmp/2029101.1.ddu.q/7JY4_W47_A_702_FMO_5_H.F05
unset echo
This is a GDDI run, keeping various output files on local disks
setenv OUTPUT /tmp/2029101.1.ddu.q/7JY4_W47_A_702_FMO_5_H.F06
setenv PUNCH /tmp/2029101.1.ddu.q/7JY4_W47_A_702_FMO_5_H.F07
unset echo
 
Assuming a single but multicore node.
 
/cluster/ddu/software/gamess/ddikick.x /cluster/ddu/software/gamess/gamess.01.x 7JY4_W47_A_702_FMO_5_H -ddi 1 2 gpu-31.cluster.lifesci.dundee.ac.uk:cpus=2 -scr /tmp/2029101.1.ddu.q

 Distributed Data Interface kickoff program.
 Initiating 2 compute processes on 1 nodes to run the following command:
 /cluster/ddu/software/gamess/gamess.01.x 7JY4_W47_A_702_FMO_5_H 

          ******************************************************
          *         GAMESS VERSION = 30 SEP 2018 (R3)         *
          *             FROM IOWA STATE UNIVERSITY             *
          * M.W.SCHMIDT, K.K.BALDRIDGE, J.A.BOATZ, S.T.ELBERT, *
          *   M.S.GORDON, J.H.JENSEN, S.KOSEKI, N.MATSUNAGA,   *
          *          K.A.NGUYEN, S.J.SU, T.L.WINDUS,           *
          *       TOGETHER WITH M.DUPUIS, J.A.MONTGOMERY       *
          *         J.COMPUT.CHEM.  14, 1347-1363(1993)        *
          **************** 64 BIT LINUX VERSION ****************

  SINCE 1993, STUDENTS AND POSTDOCS WORKING AT IOWA STATE UNIVERSITY
  AND ALSO IN THEIR VARIOUS JOBS AFTER LEAVING ISU HAVE MADE IMPORTANT
  CONTRIBUTIONS TO THE CODE:
     IVANA ADAMOVIC, CHRISTINE AIKENS, YURI ALEXEEV, POOJA ARORA,
     ANDREY ASADCHEV, ROB BELL, PRADIPTA BANDYOPADHYAY, JONATHAN BENTZ,
     BRETT BODE, KURT BRORSEN, CALEB CARLIN, GALINA CHABAN, WEI CHEN,
     CHEOL HO CHOI, PAUL DAY, ALBERT DEFUSCO, NUWAN DESILVA, TIM DUDLEY,
     DMITRI FEDOROV, ALEX FINDLATER, GRAHAM FLETCHER, MARK FREITAG,
     KURT GLAESEMANN, ANASTASIA GUNINA,
     DAN KEMP, GRANT MERRILL, NORIYUKI MINEZAWA, JONATHAN MULLIN,
     TAKESHI NAGATA, SEAN NEDD, HEATHER NETZLOFF, BOSILJKA NJEGIC, RYAN OLSON,
     MIKE PAK, BUU PHAM,
     SPENCER PRUITT, LUKE ROSKOP, JIM SHOEMAKER, LYUDMILA SLIPCHENKO,
     TONY SMITH, SAROM SOK LEANG, JIE SONG, TETSUYA TAKETSUGU, SIMON WEBB,
     PENG XU, SOOHAENG YOO, FEDERICO ZAHARIEV

  ADDITIONAL CODE HAS BEEN PROVIDED BY COLLABORATORS IN OTHER GROUPS:
     IOWA STATE UNIVERSITY:
          JOE IVANIC, AARON WEST, LAIMUTIS BYTAUTAS, KLAUS RUEDENBERG
     UNIVERSITY OF TOKYO: KIMIHIKO HIRAO, TAKAHITO NAKAJIMA,
          TAKAO TSUNEDA, MUNEAKI KAMIYA, SUSUMU YANAGISAWA,
          KIYOSHI YAGI, MAHITO CHIBA, SEIKEN TOKURA, NAOAKI KAWAKAMI
     UNIVERSITY OF AARHUS: FRANK JENSEN
     UNIVERSITY OF IOWA: VISVALDAS KAIRYS, HUI LI
     NATIONAL INST. OF STANDARDS AND TECHNOLOGY: WALT STEVENS, DAVID GARMER
     UNIVERSITY OF PISA: BENEDETTA MENNUCCI, JACOPO TOMASI
     UNIVERSITY OF MEMPHIS: HENRY KURTZ, PRAKASHAN KORAMBATH
     UNIVERSITY OF ALBERTA: TOBY ZENG, MARIUSZ KLOBUKOWSKI
     UNIVERSITY OF NEW ENGLAND: MARK SPACKMAN
     MIE UNIVERSITY: HIROAKI UMEDA
     NAT. INST. OF ADVANCED INDUSTRIAL SCIENCE AND TECHNOLOGY: KAZUO KITAURA
     MICHIGAN STATE UNIVERSITY:
          KAROL KOWALSKI, MARTA WLOCH, JEFFREY GOUR, JESSE LUTZ,
          WEI LI, JUN SHEN, J. EMILIANO DEUSTUA, PIOTR PIECUCH
     UNIVERSITY OF MINNESOTA:
          YINAN SHU
     UNIVERSITY OF SILESIA: MONIKA MUSIAL, STANISLAW KUCHARSKI
     FACULTES UNIVERSITAIRES NOTRE-DAME DE LA PAIX:
          OLIVIER QUINET, BENOIT CHAMPAGNE
     UNIVERSITY OF CALIFORNIA - SANTA BARBARA: BERNARD KIRTMAN
     INSTITUTE FOR MOLECULAR SCIENCE:
          KAZUYA ISHIMURA, MICHIO KATOUDA, AND SHIGERU NAGASE
     UNIVERSITY OF NOTRE DAME: ANNA POMOGAEVA, DAN CHIPMAN
     KYUSHU UNIVERSITY:
          HARUYUKI NAKANO,
          FENG LONG GU, JACEK KORCHOWIEC, MARCIN MAKOWSKI, AND YURIKO AOKI,
          HIROTOSHI MORI AND EISAKU MIYOSHI
     PENNSYLVANIA STATE UNIVERSITY:
          TZVETELIN IORDANOV, CHET SWALINA, JONATHAN SKONE,
          SHARON HAMMES-SCHIFFER
     WASEDA UNIVERSITY:
          MASATO KOBAYASHI, TOMOKO AKAMA, TSUGUKI TOUMA,
          TAKESHI YOSHIKAWA, YASUHIRO IKABATA, JUNJI SEINO,
          YUYA NAKAJIMA, HIROMI NAKAI
     NANJING UNIVERSITY: SHUHUA LI
     UNIVERSITY OF NEBRASKA:
          PEIFENG SU, DEJUN SI, NANDUN THELLAMUREGE, YALI WANG, HUI LI
     UNIVERSITY OF ZURICH: ROBERTO PEVERATI, KIM BALDRIDGE
     N. COPERNICUS UNIVERSITY AND JACKSON STATE UNIVERSITY:
          MARIA BARYSZ
     UNIVERSITY OF COPENHAGEN: Jimmy Kromann, CASPER STEINMANN
     TOKYO INSTITUTE OF TECHNOLOGY: HIROYA NAKATA
     NAGOYA UNIVERSITY: YOSHIO NISHIMOTO, STEPHAN IRLE
     MOSCOW STATE UNIVERSITY: VLADIMIR MIRONOV


 PARALLEL VERSION RUNNING ON        2 PROCESSORS IN        1 NODES.

 EXECUTION OF GAMESS BEGUN Mon Nov 11 19:29:03 2024

            ECHO OF THE FIRST FEW INPUT CARDS -
 INPUT CARD> !*** INPUT generated by FMOPhore, Copyright "©" reserved to Peter Ezzat Girgis 
 INPUT CARD> $CONTRL RUNTYP=ENERGY NPRINT=-5 ISPHER=-1 MAXIT=50 $END                        
 INPUT CARD> $SYSTEM MWORDS=29 $END                                                         
 INPUT CARD> $GDDI NGROUP=1 $END                                                            
 INPUT CARD> $INTGRL NINTIC=-9000000 $END                                                   
 INPUT CARD> $SCF DIRSCF=.TRUE. NPUNCH=0 $END                                               
 INPUT CARD> $BASIS GBASIS=DFTB $END                                                        
 INPUT CARD> $PCM SOLVNT=WATER ICOMP=2 ICAV=1 IDISP=1 IFMO=-1 $END                          
 INPUT CARD> $PCMCAV RADII=SUAHF $END                                                       
 INPUT CARD> $TESCAV NTSALL=60 $END                                                         
 INPUT CARD> $DFTB                                                                          
 INPUT CARD>   SCC=.TRUE. DFTB3=.TRUE. DAMPXH=.TRUE. DAMPEX=4.00 DISP=UFF                   
 INPUT CARD> $END                                                                           
 INPUT CARD> $FMOPRP                                                                        
 INPUT CARD>    NAODIR=200                                                                  
 INPUT CARD>    NGRFMO(1)=1, 1, 0, 0, 0,   0, 0, 0, 0, 0                                    
 INPUT CARD>    IPIEDA=1                                                                    
 INPUT CARD>    NPRINT=9                                                                    
 INPUT CARD>    modorb=3                                                                    
 INPUT CARD> $END                                                                           
 INPUT CARD> $DFTBSK                                                                        
 INPUT CARD>   Br Br /cluster/ddu/software/gamess/auxdata/DFTB/3ob-3-1/Br-Br.skf            
 INPUT CARD>   Br C /cluster/ddu/software/gamess/auxdata/DFTB/3ob-3-1/Br-C.skf              
 INPUT CARD>   Br Ca /cluster/ddu/software/gamess/auxdata/DFTB/3ob-3-1/Br-Ca.skf            
 INPUT CARD>   Br Cl /cluster/ddu/software/gamess/auxdata/DFTB/3ob-3-1/Br-Cl.skf            
 INPUT CARD>   Br F /cluster/ddu/software/gamess/auxdata/DFTB/3ob-3-1/Br-F.skf              
 INPUT CARD>   Br H /cluster/ddu/software/gamess/auxdata/DFTB/3ob-3-1/Br-H.skf              
 INPUT CARD>   Br I /cluster/ddu/software/gamess/auxdata/DFTB/3ob-3-1/Br-I.skf              
 INPUT CARD>   Br K /cluster/ddu/software/gamess/auxdata/DFTB/3ob-3-1/Br-K.skf              
 INPUT CARD>   Br Mg /cluster/ddu/software/gamess/auxdata/DFTB/3ob-3-1/Br-Mg.skf            
 INPUT CARD>   Br N /cluster/ddu/software/gamess/auxdata/DFTB/3ob-3-1/Br-N.skf              
 INPUT CARD>   Br Na /cluster/ddu/software/gamess/auxdata/DFTB/3ob-3-1/Br-Na.skf            
 INPUT CARD>   Br O /cluster/ddu/software/gamess/auxdata/DFTB/3ob-3-1/Br-O.skf              
 INPUT CARD>   Br P /cluster/ddu/software/gamess/auxdata/DFTB/3ob-3-1/Br-P.skf              
 INPUT CARD>   Br S /cluster/ddu/software/gamess/auxdata/DFTB/3ob-3-1/Br-S.skf              
 INPUT CARD>   Br Zn /cluster/ddu/software/gamess/auxdata/DFTB/3ob-3-1/Br-Zn.skf            
 INPUT CARD>   C Br /cluster/ddu/software/gamess/auxdata/DFTB/3ob-3-1/C-Br.skf              
 INPUT CARD>   C C /cluster/ddu/software/gamess/auxdata/DFTB/3ob-3-1/C-C.skf                
 INPUT CARD>   C Ca /cluster/ddu/software/gamess/auxdata/DFTB/3ob-3-1/C-Ca.skf              
 INPUT CARD>   C Cl /cluster/ddu/software/gamess/auxdata/DFTB/3ob-3-1/C-Cl.skf              
 INPUT CARD>   C F /cluster/ddu/software/gamess/auxdata/DFTB/3ob-3-1/C-F.skf                
 INPUT CARD>   C H /cluster/ddu/software/gamess/auxdata/DFTB/3ob-3-1/C-H.skf                
 INPUT CARD>   C I /cluster/ddu/software/gamess/auxdata/DFTB/3ob-3-1/C-I.skf                
 INPUT CARD>   C K /cluster/ddu/software/gamess/auxdata/DFTB/3ob-3-1/C-K.skf                
 INPUT CARD>   C Mg /cluster/ddu/software/gamess/auxdata/DFTB/3ob-3-1/C-Mg.skf              
 INPUT CARD>   C N /cluster/ddu/software/gamess/auxdata/DFTB/3ob-3-1/C-N.skf                
 INPUT CARD>   C Na /cluster/ddu/software/gamess/auxdata/DFTB/3ob-3-1/C-Na.skf              
 INPUT CARD>   C O /cluster/ddu/software/gamess/auxdata/DFTB/3ob-3-1/C-O.skf                
 INPUT CARD>   C P /cluster/ddu/software/gamess/auxdata/DFTB/3ob-3-1/C-P.skf                
 INPUT CARD>   C S /cluster/ddu/software/gamess/auxdata/DFTB/3ob-3-1/C-S.skf                


 -------------------------------------------------------------
 GROUP DDI, PROGRAMMED BY: RYAN M. OLSON AND DMITRI G. FEDOROV
        FEDOROV ET AL., J. COMPUT. CHEM., 25 (2004) 872.
 -------------------------------------------------------------

 -------------------------------------------------------
 GDDI: INITIALIZATION COMPLETED FOR GROUP     1 OF     1
 WITH     2 PROCESSES BALTYP=DLB   global rank=        0
 -------------------------------------------------------

   29000000 WORDS OF MEMORY AVAILABLE

     BASIS OPTIONS
     -------------
     GBASIS=DFTB         IGAUSS=       0      POLAR=NONE    
     NDFUNC=       0     NFFUNC=       0     DIFFSP=       F
     NPFUNC=       0      DIFFS=       F     BASNAM=        


     RUN TITLE
     ---------
  FMO calculation : 7JY4_W47_A_702_FMO_5_H.pdb                                   

 THE POINT GROUP OF THE MOLECULE IS C1      
 THE ORDER OF THE PRINCIPAL AXIS IS     0

  **********************************************************
  **  DENSITY-FUNCTIONAL TIGHT-BINDING (DFTB) CALCULATION **
  **********************************************************
        WRITTEN BY YOSHIO NISHIMOTO (NAGOYA UNIVERSITY)

 NUMBER OF SPECIES: 10
        SPECIES 1 :  C       WITH S+P   ORBITALS
        SPECIES 2 :  O       WITH S+P   ORBITALS
        SPECIES 3 :  H       WITH S     ORBITAL
        SPECIES 4 :  N       WITH S+P   ORBITALS
        SPECIES 5 :  S       WITH S+P+D ORBITALS
        SPECIES 6 :  F       WITH S+P   ORBITALS
        SPECIES 7 :  P       WITH S+P+D ORBITALS
        SPECIES 8 :  CL      WITH S+P+D ORBITALS
        SPECIES 9 :  BR      WITH S+P+D ORBITALS
        SPECIES10 :  I       WITH S+P+D ORBITALS

     $DFTB OPTIONS
     -------------
 NDFTB  =       3     SCC    =       T     DFTB3  =       T
 SRSCC  =       F     DAMPXH =       T     DAMPEX =    4.00
 DISP   =UFF          ITYPMX =       0     ETEMP  =    0.00
 MODESD =       0     MODGAM =       8     PRTORB =       F

 --- SCC CALCULATION ---
     INCLUDE 3RD ORDER CORRECTION

 SETTING HUBBARD DERIVATIVES FOR DFTB3
 C       :     -0.14920
 O       :     -0.15750
 H       :     -0.18570
 N       :     -0.15350
 S       :     -0.11000
 F       :     -0.16230
 P       :     -0.14000
 CL      :     -0.06970
 BR      :     -0.05730
 I       :     -0.04330
     USE X-H DAMPING:  4.00000

 BROYDEN'S CHARGE MIXING
 LENNARD-JONES TYPE DISPERSION IS TURNED ON

 SETTING PARAMETERS FOR UFF-TYPE DISPERSION
 DISTANCE IN ANGSTROM, ENERGY IN KCAL/MOL

               DISTANCE       ENERGY
 C       :      3.85100      0.10500
 O       :      3.50000      0.06000
 H       :      2.88600      0.04400
 N       :      3.66000      0.06900
 S       :      4.03500      0.27400
 F       :      3.36400      0.05000
 P       :      4.14700      0.30500
 CL      :      3.94700      0.22700
 BR      :      4.18900      0.25100
 I       :      4.50000      0.33900


 100 SLATER-KOSTER FILES WILL BE READ

  START READING SLATER-KOSTER FILES

  1  1 (C        - C       ) = /cluster/ddu/software/gamess/auxdata/DFTB/3ob-3-1/C-C.skf
  1  2 (C        - O       ) = /cluster/ddu/software/gamess/auxdata/DFTB/3ob-3-1/C-O.skf
  1  3 (C        - H       ) = /cluster/ddu/software/gamess/auxdata/DFTB/3ob-3-1/C-H.skf
  1  4 (C        - N       ) = /cluster/ddu/software/gamess/auxdata/DFTB/3ob-3-1/C-N.skf
  1  5 (C        - S       ) = /cluster/ddu/software/gamess/auxdata/DFTB/3ob-3-1/C-S.skf
  1  6 (C        - F       ) = /cluster/ddu/software/gamess/auxdata/DFTB/3ob-3-1/C-F.skf
  1  7 (C        - P       ) = /cluster/ddu/software/gamess/auxdata/DFTB/3ob-3-1/C-P.skf
  1  8 (C        - CL      ) = /cluster/ddu/software/gamess/auxdata/DFTB/3ob-3-1/C-Cl.skf
  1  9 (C        - BR      ) = /cluster/ddu/software/gamess/auxdata/DFTB/3ob-3-1/C-Br.skf
  1 10 (C        - I       ) = /cluster/ddu/software/gamess/auxdata/DFTB/3ob-3-1/C-I.skf
  2  1 (O        - C       ) = /cluster/ddu/software/gamess/auxdata/DFTB/3ob-3-1/O-C.skf
  2  2 (O        - O       ) = /cluster/ddu/software/gamess/auxdata/DFTB/3ob-3-1/O-O.skf
  2  3 (O        - H       ) = /cluster/ddu/software/gamess/auxdata/DFTB/3ob-3-1/O-H.skf
  2  4 (O        - N       ) = /cluster/ddu/software/gamess/auxdata/DFTB/3ob-3-1/O-N.skf
  2  5 (O        - S       ) = /cluster/ddu/software/gamess/auxdata/DFTB/3ob-3-1/O-S.skf
  2  6 (O        - F       ) = /cluster/ddu/software/gamess/auxdata/DFTB/3ob-3-1/O-F.skf
  2  7 (O        - P       ) = /cluster/ddu/software/gamess/auxdata/DFTB/3ob-3-1/O-P.skf
  2  8 (O        - CL      ) = /cluster/ddu/software/gamess/auxdata/DFTB/3ob-3-1/O-Cl.skf
  2  9 (O        - BR      ) = /cluster/ddu/software/gamess/auxdata/DFTB/3ob-3-1/O-Br.skf
  2 10 (O        - I       ) = /cluster/ddu/software/gamess/auxdata/DFTB/3ob-3-1/O-I.skf
  3  1 (H        - C       ) = /cluster/ddu/software/gamess/auxdata/DFTB/3ob-3-1/H-C.skf
  3  2 (H        - O       ) = /cluster/ddu/software/gamess/auxdata/DFTB/3ob-3-1/H-O.skf
  3  3 (H        - H       ) = /cluster/ddu/software/gamess/auxdata/DFTB/3ob-3-1/H-H.skf
  3  4 (H        - N       ) = /cluster/ddu/software/gamess/auxdata/DFTB/3ob-3-1/H-N.skf
  3  5 (H        - S       ) = /cluster/ddu/software/gamess/auxdata/DFTB/3ob-3-1/H-S.skf
  3  6 (H        - F       ) = /cluster/ddu/software/gamess/auxdata/DFTB/3ob-3-1/H-F.skf
  3  7 (H        - P       ) = /cluster/ddu/software/gamess/auxdata/DFTB/3ob-3-1/H-P.skf
  3  8 (H        - CL      ) = /cluster/ddu/software/gamess/auxdata/DFTB/3ob-3-1/H-Cl.skf
  3  9 (H        - BR      ) = /cluster/ddu/software/gamess/auxdata/DFTB/3ob-3-1/H-Br.skf
  3 10 (H        - I       ) = /cluster/ddu/software/gamess/auxdata/DFTB/3ob-3-1/H-I.skf
  4  1 (N        - C       ) = /cluster/ddu/software/gamess/auxdata/DFTB/3ob-3-1/N-C.skf
  4  2 (N        - O       ) = /cluster/ddu/software/gamess/auxdata/DFTB/3ob-3-1/N-O.skf
  4  3 (N        - H       ) = /cluster/ddu/software/gamess/auxdata/DFTB/3ob-3-1/N-H.skf
  4  4 (N        - N       ) = /cluster/ddu/software/gamess/auxdata/DFTB/3ob-3-1/N-N.skf
  4  5 (N        - S       ) = /cluster/ddu/software/gamess/auxdata/DFTB/3ob-3-1/N-S.skf
  4  6 (N        - F       ) = /cluster/ddu/software/gamess/auxdata/DFTB/3ob-3-1/N-F.skf
  4  7 (N        - P       ) = /cluster/ddu/software/gamess/auxdata/DFTB/3ob-3-1/N-P.skf
  4  8 (N        - CL      ) = /cluster/ddu/software/gamess/auxdata/DFTB/3ob-3-1/N-Cl.skf
  4  9 (N        - BR      ) = /cluster/ddu/software/gamess/auxdata/DFTB/3ob-3-1/N-Br.skf
  4 10 (N        - I       ) = /cluster/ddu/software/gamess/auxdata/DFTB/3ob-3-1/N-I.skf
  5  1 (S        - C       ) = /cluster/ddu/software/gamess/auxdata/DFTB/3ob-3-1/S-C.skf
  5  2 (S        - O       ) = /cluster/ddu/software/gamess/auxdata/DFTB/3ob-3-1/S-O.skf
  5  3 (S        - H       ) = /cluster/ddu/software/gamess/auxdata/DFTB/3ob-3-1/S-H.skf
  5  4 (S        - N       ) = /cluster/ddu/software/gamess/auxdata/DFTB/3ob-3-1/S-N.skf
  5  5 (S        - S       ) = /cluster/ddu/software/gamess/auxdata/DFTB/3ob-3-1/S-S.skf
  5  6 (S        - F       ) = /cluster/ddu/software/gamess/auxdata/DFTB/3ob-3-1/S-F.skf
  5  7 (S        - P       ) = /cluster/ddu/software/gamess/auxdata/DFTB/3ob-3-1/S-P.skf
  5  8 (S        - CL      ) = /cluster/ddu/software/gamess/auxdata/DFTB/3ob-3-1/S-Cl.skf
  5  9 (S        - BR      ) = /cluster/ddu/software/gamess/auxdata/DFTB/3ob-3-1/S-Br.skf
  5 10 (S        - I       ) = /cluster/ddu/software/gamess/auxdata/DFTB/3ob-3-1/S-I.skf
  6  1 (F        - C       ) = /cluster/ddu/software/gamess/auxdata/DFTB/3ob-3-1/F-C.skf
  6  2 (F        - O       ) = /cluster/ddu/software/gamess/auxdata/DFTB/3ob-3-1/F-O.skf
  6  3 (F        - H       ) = /cluster/ddu/software/gamess/auxdata/DFTB/3ob-3-1/F-H.skf
  6  4 (F        - N       ) = /cluster/ddu/software/gamess/auxdata/DFTB/3ob-3-1/F-N.skf
  6  5 (F        - S       ) = /cluster/ddu/software/gamess/auxdata/DFTB/3ob-3-1/F-S.skf
  6  6 (F        - F       ) = /cluster/ddu/software/gamess/auxdata/DFTB/3ob-3-1/F-F.skf
  6  7 (F        - P       ) = /cluster/ddu/software/gamess/auxdata/DFTB/3ob-3-1/F-P.skf
  6  8 (F        - CL      ) = /cluster/ddu/software/gamess/auxdata/DFTB/3ob-3-1/F-Cl.skf
  6  9 (F        - BR      ) = /cluster/ddu/software/gamess/auxdata/DFTB/3ob-3-1/F-Br.skf
  6 10 (F        - I       ) = /cluster/ddu/software/gamess/auxdata/DFTB/3ob-3-1/F-I.skf
  7  1 (P        - C       ) = /cluster/ddu/software/gamess/auxdata/DFTB/3ob-3-1/P-C.skf
  7  2 (P        - O       ) = /cluster/ddu/software/gamess/auxdata/DFTB/3ob-3-1/P-O.skf
  7  3 (P        - H       ) = /cluster/ddu/software/gamess/auxdata/DFTB/3ob-3-1/P-H.skf
  7  4 (P        - N       ) = /cluster/ddu/software/gamess/auxdata/DFTB/3ob-3-1/P-N.skf
  7  5 (P        - S       ) = /cluster/ddu/software/gamess/auxdata/DFTB/3ob-3-1/P-S.skf
  7  6 (P        - F       ) = /cluster/ddu/software/gamess/auxdata/DFTB/3ob-3-1/P-F.skf
  7  7 (P        - P       ) = /cluster/ddu/software/gamess/auxdata/DFTB/3ob-3-1/P-P.skf
  7  8 (P        - CL      ) = /cluster/ddu/software/gamess/auxdata/DFTB/3ob-3-1/P-Cl.skf
  7  9 (P        - BR      ) = /cluster/ddu/software/gamess/auxdata/DFTB/3ob-3-1/P-Br.skf
  7 10 (P        - I       ) = /cluster/ddu/software/gamess/auxdata/DFTB/3ob-3-1/P-I.skf
  8  1 (CL       - C       ) = /cluster/ddu/software/gamess/auxdata/DFTB/3ob-3-1/Cl-C.skf
  8  2 (CL       - O       ) = /cluster/ddu/software/gamess/auxdata/DFTB/3ob-3-1/Cl-O.skf
  8  3 (CL       - H       ) = /cluster/ddu/software/gamess/auxdata/DFTB/3ob-3-1/Cl-H.skf
  8  4 (CL       - N       ) = /cluster/ddu/software/gamess/auxdata/DFTB/3ob-3-1/Cl-N.skf
  8  5 (CL       - S       ) = /cluster/ddu/software/gamess/auxdata/DFTB/3ob-3-1/Cl-S.skf
  8  6 (CL       - F       ) = /cluster/ddu/software/gamess/auxdata/DFTB/3ob-3-1/Cl-F.skf
  8  7 (CL       - P       ) = /cluster/ddu/software/gamess/auxdata/DFTB/3ob-3-1/Cl-P.skf
  8  8 (CL       - CL      ) = /cluster/ddu/software/gamess/auxdata/DFTB/3ob-3-1/Cl-Cl.skf
  8  9 (CL       - BR      ) = /cluster/ddu/software/gamess/auxdata/DFTB/3ob-3-1/Cl-Br.skf
  8 10 (CL       - I       ) = /cluster/ddu/software/gamess/auxdata/DFTB/3ob-3-1/Cl-I.skf
  9  1 (BR       - C       ) = /cluster/ddu/software/gamess/auxdata/DFTB/3ob-3-1/Br-C.skf
  9  2 (BR       - O       ) = /cluster/ddu/software/gamess/auxdata/DFTB/3ob-3-1/Br-O.skf
  9  3 (BR       - H       ) = /cluster/ddu/software/gamess/auxdata/DFTB/3ob-3-1/Br-H.skf
  9  4 (BR       - N       ) = /cluster/ddu/software/gamess/auxdata/DFTB/3ob-3-1/Br-N.skf
  9  5 (BR       - S       ) = /cluster/ddu/software/gamess/auxdata/DFTB/3ob-3-1/Br-S.skf
  9  6 (BR       - F       ) = /cluster/ddu/software/gamess/auxdata/DFTB/3ob-3-1/Br-F.skf
  9  7 (BR       - P       ) = /cluster/ddu/software/gamess/auxdata/DFTB/3ob-3-1/Br-P.skf
  9  8 (BR       - CL      ) = /cluster/ddu/software/gamess/auxdata/DFTB/3ob-3-1/Br-Cl.skf
  9  9 (BR       - BR      ) = /cluster/ddu/software/gamess/auxdata/DFTB/3ob-3-1/Br-Br.skf
  9 10 (BR       - I       ) = /cluster/ddu/software/gamess/auxdata/DFTB/3ob-3-1/Br-I.skf
 10  1 (I        - C       ) = /cluster/ddu/software/gamess/auxdata/DFTB/3ob-3-1/I-C.skf
 10  2 (I        - O       ) = /cluster/ddu/software/gamess/auxdata/DFTB/3ob-3-1/I-O.skf
 10  3 (I        - H       ) = /cluster/ddu/software/gamess/auxdata/DFTB/3ob-3-1/I-H.skf
 10  4 (I        - N       ) = /cluster/ddu/software/gamess/auxdata/DFTB/3ob-3-1/I-N.skf
 10  5 (I        - S       ) = /cluster/ddu/software/gamess/auxdata/DFTB/3ob-3-1/I-S.skf
 10  6 (I        - F       ) = /cluster/ddu/software/gamess/auxdata/DFTB/3ob-3-1/I-F.skf
 10  7 (I        - P       ) = /cluster/ddu/software/gamess/auxdata/DFTB/3ob-3-1/I-P.skf
 10  8 (I        - CL      ) = /cluster/ddu/software/gamess/auxdata/DFTB/3ob-3-1/I-Cl.skf
 10  9 (I        - BR      ) = /cluster/ddu/software/gamess/auxdata/DFTB/3ob-3-1/I-Br.skf
 10 10 (I        - I       ) = /cluster/ddu/software/gamess/auxdata/DFTB/3ob-3-1/I-I.skf

 ATOM   ATOMIC CHARGE
 C           6.0
 O           8.0
 H           1.0
 N           7.0
 S          16.0
 F           9.0
 P          15.0
 CL         17.0
 BR         35.0
 I          53.0

 TOTAL NUMBER OF BASIS SET SHELLS             =   24
 NUMBER OF CARTESIAN GAUSSIAN BASIS FUNCTIONS =   62

     $CONTRL OPTIONS
     ---------------
 SCFTYP=RHF          RUNTYP=ENERGY       EXETYP=RUN     
 MPLEVL=       0     CITYP =NONE         CCTYP =NONE         VBTYP =NONE    
 DFTTYP=NONE         TDDFT =NONE    
 MULT  =       1     ICHARG=       0     NZVAR =       0     COORD =UNIQUE  
 PP    =NONE         RELWFN=NONE         LOCAL =NONE         NUMGRD=       F
 ISPHER=       1     NOSYM =       0     MAXIT =      50     UNITS =ANGS    
 PLTORB=       F     MOLPLT=       F     AIMPAC=       F     FRIEND=        
 NPRINT=      -5     IREST =       0     GEOM  =INPUT   
 NORMF =       0     NORMP =       0     ITOL  =      24     ICUT  =      -1
 INTTYP=BEST         GRDTYP=BEST         QMTTOL= 1.0E-06

     $SYSTEM OPTIONS
     ---------------
  REPLICATED MEMORY=    29000000 WORDS (ON EVERY NODE).
 DISTRIBUTED MEMDDI=           0 MILLION WORDS IN AGGREGATE,
 MEMDDI DISTRIBUTED OVER   2 PROCESSORS IS           0 WORDS/PROCESSOR.
 TOTAL MEMORY REQUESTED ON EACH PROCESSOR=    29000000 WORDS.
 TIMLIM=      525600.00 MINUTES, OR     365.0 DAYS.
 PARALL= T  BALTYP=  DLB     KDIAG=    0  COREFL= F
 MXSEQ2=     300 MXSEQ3=     150  mem10=         0

 ** LOOKING UP INTERNALLY STORED DATA FOR SOLVENT=WATER    **
 OPTICAL AND PHYSICAL CONSTANTS:
 EPS= 78.390; EPSINF=  1.776; RSOLV=  1.385 A; VMOL=  18.070 ML/MOL;
 TCE= .25700E-03 1/K; STEN= 71.810 DYN/CM;  DSTEN=  0.6500; CMF=  1.2770


     -----------------------------------
     INPUT FOR PCM SOLVATION CALCULATION 
     -----------------------------------
     IEF   =     -10
     ICOMP =       2     IFIELD=       0     ICAV  =       1
     IDISP =       1     IREP  =       0     IDP   =       0

     SOLVNT=WATER        EPS   = 78.3900     EPSINF=  1.7760
     VMOL  = 18.0700     TCE   =  0.00025700 STEN  = 71.8100
     DSTEN =  0.6500     CMF   =  1.2770     RSOLV =  1.3850

     NESFP =       0
     OMEGA = 40.0000     RET   =100.0000     FRO   =  0.7000

     TABS  =298.0000     IPRINT=       0

     --------------------------------
     INPUT FOR ITERATIVE C-PCM METHOD 
     --------------------------------
     IPCMIT  =         1     MXDIIS  =        50
     MXITR1  =       200     MXITR2  =       200
     THRES   = 0.100E-09     IMUL    =         3
     RCUT(1) =   20.0000     RCUT(2) =   50.0000

     IDIRCT  =         1
     IMGABI  =         0     RABI    =    4.0000
     IMGASC  =         0     RASC    =   20.0000
     THRSLS  = 0.500E-03     DENSLS  =    0.0100
     IEFPOL  =         1     REFPOL  =    0.0000

     INPUT FOR ISOTROPIC DIELECTRICS
     -------------------------------
     EPS=    78.39

          ----------------
          PROPERTIES INPUT
          ----------------

     MOMENTS            FIELD           POTENTIAL          DENSITY
 IEMOM =       1   IEFLD =       0   IEPOT =       0   IEDEN =       0
 WHERE =COMASS     WHERE =NUCLEI     WHERE =NUCLEI     WHERE =NUCLEI  
 OUTPUT=BOTH       OUTPUT=BOTH       OUTPUT=NONE       OUTPUT=BOTH    
 IEMINT=       0   IEFINT=       0                     IEDINT=       0
                                                       MORB  =       0
          EXTRAPOLATION IN EFFECT
          SOSCF IN EFFECT
 ORBITAL PRINTING OPTION: NPREO=     1 32767     2     1

     -------------------------------
     INTEGRAL TRANSFORMATION OPTIONS
     -------------------------------
     NWORD  =            0
     CUTOFF = 1.0E-10     MPTRAN =       0
     DIRTRF =       T     AOINTS =DUP     

          ----------------------
          INTEGRAL INPUT OPTIONS
          ----------------------
 NOPK  =       1 NORDER=       0 SCHWRZ=       T

 ..... DONE SETTING UP THE RUN .....
 CPU     0: STEP CPU TIME=     0.81 TOTAL CPU TIME=          0.8 (      0.0 MIN)
 TOTAL WALL CLOCK TIME=          3.0 SECONDS, CPU UTILIZATION IS    26.91%

 ALLOCATED      9030000 WORDS FOR IN CORE 2E INTEGRALS.

 CPU     0: STEP CPU TIME=     0.02 TOTAL CPU TIME=          0.8 (      0.0 MIN)
 TOTAL WALL CLOCK TIME=          3.0 SECONDS, CPU UTILIZATION IS    27.48%

                    ----------------------
                    AO INTEGRAL TECHNOLOGY
                    ----------------------
     S,P,L SHELL ROTATED AXIS INTEGRALS, REPROGRAMMED BY
        KAZUYA ISHIMURA (IMS) AND JOSE SIERRA (SYNSTAR).
     S,P,D,L SHELL ROTATED AXIS INTEGRALS PROGRAMMED BY
        KAZUYA ISHIMURA (INSTITUTE FOR MOLECULAR SCIENCE).
     S,P,D,F,G SHELL TO TOTAL QUARTET ANGULAR MOMENTUM SUM 5,
        ERIC PROGRAM BY GRAHAM FLETCHER (ELORET AND NASA ADVANCED
        SUPERCOMPUTING DIVISION, AMES RESEARCH CENTER).
     S,P,D,F,G,L SHELL GENERAL RYS QUADRATURE PROGRAMMED BY
        MICHEL DUPUIS (PACIFIC NORTHWEST NATIONAL LABORATORY).
 CPU     0: STEP CPU TIME=     0.03 TOTAL CPU TIME=          0.9 (      0.0 MIN)
 TOTAL WALL CLOCK TIME=          3.1 SECONDS, CPU UTILIZATION IS    28.01%
 CPU     0: STEP CPU TIME=     0.00 TOTAL CPU TIME=          0.9 (      0.0 MIN)
 TOTAL WALL CLOCK TIME=          3.1 SECONDS, CPU UTILIZATION IS    28.01%

     INPUT FOR CAVITY DEFINITION 
     ---------------------------
   ATOM               COORDINATES                RADIUS       EPS
      1    -11.8640     -1.8160    -18.1590      1.6800     78.3900
      2    -10.4770     -1.8390    -17.7380      1.7700     78.3900
      3    -10.1760     -0.7530    -16.7230      1.7700     78.3900
      4    -10.7380      0.3410    -16.7580      1.5900     78.3900
      5    -12.2350     -2.7520    -18.0750      0.0100     78.3900
      6    -11.9900     -1.5490    -18.9670      0.0100     78.3900
      7    -10.2750     -2.6990    -17.3380      0.0100     78.3900
      8     -9.9040     -1.7060    -18.5100      0.0100     78.3900
      9     -9.2620     -1.0660    -15.8010      1.6800     78.3900
     10     -8.9550     -0.1710    -14.6920      1.7700     78.3900
     11     -7.4820      0.1890    -14.5590      1.7700     78.3900
     12     -7.1530      1.0230    -13.7070      1.5900     78.3900
     13     -9.4240     -0.7850    -13.3640      1.7700     78.3900
     14    -10.9270     -1.0360    -13.2160      1.7700     78.3900
     15    -11.2190     -1.6610    -11.8620      1.7700     78.3900
     16    -11.7250      0.2500    -13.3960      1.7700     78.3900
     17     -8.8060     -1.7960    -15.7980      0.0100     78.3900
     18     -9.4420      0.6550    -14.8340      0.0100     78.3900
     19     -8.9810     -1.6420    -13.2560      0.0100     78.3900
     20     -9.1640     -0.1850    -12.6480      0.0100     78.3900
     21    -11.2100     -1.6510    -13.9110      0.0100     78.3900
     22    -12.1730     -1.8200    -11.7870      0.0100     78.3900
     23    -10.7370     -2.5000    -11.7900      0.0100     78.3900
     24    -10.9290     -1.0520    -11.1640      0.0100     78.3900
     25    -12.6660      0.0600    -13.2540      0.0100     78.3900
     26    -11.4190      0.9050    -12.7490      0.0100     78.3900
     27    -11.5870      0.5840    -14.2960      0.0100     78.3900
     28     -6.5930     -0.3980    -15.3500      1.6800     78.3900
     29     -5.1930     -0.0480    -15.3050      1.7700     78.3900
     30     -4.3230     -1.2740    -15.4690      1.7700     78.3900
     31     -4.7590     -2.3010    -15.9860      1.5900     78.3900
     32     -6.7850     -1.0080    -15.9250      0.0100     78.3900
     33     -4.9880      0.5760    -16.0190      0.0100     78.3900
     34     -4.9860      0.3680    -14.4530      0.0100     78.3900
     35     -3.0770     -1.1450    -15.0210      1.6800     78.3900
     36     -2.0830     -2.2040    -15.1050      1.7700     78.3900
     37     -1.6000     -2.5760    -13.7110      1.7700     78.3900
     38     -1.4780     -1.7140    -12.8340      1.5900     78.3900
     39     -0.8790     -1.7790    -15.9590      1.7700     78.3900
     40     -1.1160     -1.8670    -17.4340      1.7700     78.3900
     41     -1.8120     -0.9070    -18.1360      1.7700     78.3900
     42     -0.7390     -2.7990    -18.3420      1.6800     78.3900
     43     -1.2140     -2.3890    -19.5640      1.7700     78.3900
     44     -1.8570     -1.2450    -19.4130      1.6800     78.3900
     45     -2.7800     -0.2780    -14.5970      0.0100     78.3900
     46     -2.5430     -3.0800    -15.5610      0.0100     78.3900
     47     -0.5930     -0.7600    -15.6990      0.0100     78.3900
     48     -0.0150     -2.3890    -15.6950      0.0100     78.3900
     49     -0.1700     -3.6610    -18.0270      0.0100     78.3900
     50     -2.1910     -0.1040    -17.6540      0.0100     78.3900
     51     -1.0420     -2.9500    -20.3860      0.0100     78.3900
     52     -1.3280     -3.8640    -13.5130      1.6800     78.3900
     53     -0.6430     -4.3350    -12.3300      1.7700     78.3900
     54      0.8540     -4.4070    -12.5600      1.7700     78.3900
     55      1.3870     -3.9260    -13.5610      1.5900     78.3900
     56     -1.6020     -4.5500    -14.2020      0.0100     78.3900
     57     -0.8500     -3.6620    -11.4980      0.0100     78.3900
     58     -1.0170     -5.3230    -12.0630      0.0100     78.3900
     59      1.5460     -5.0250    -11.5990      1.6800     78.3900
     60      2.9800     -5.2420    -11.7600      1.7700     78.3900
     61      3.2810     -5.9180    -13.0920      1.7700     78.3900
     62      4.2420     -5.5580    -13.7830      1.5900     78.3900
     63      3.5190     -6.0760    -10.5960      1.7700     78.3900
     64      2.6420     -6.7290    -13.4400      0.0100     78.3900
     65      1.0770     -5.3410    -10.7620      0.0100     78.3900
     66      3.4780     -4.2720    -11.7470      0.0100     78.3900
     67      4.5900     -6.2320    -10.7260      0.0100     78.3900
     68      3.3400     -5.5500     -9.6580      0.0100     78.3900
     69      3.0120     -7.0400    -10.5740      0.0100     78.3900
     70     -3.0720     -7.0080    -16.1990      1.6800     78.3900
     71     -4.0430     -5.9220    -16.2130      1.7700     78.3900
     72     -5.0860     -6.1390    -15.1240      1.7700     78.3900
     73     -5.1070     -7.1670    -14.4420      1.5900     78.3900
     74     -4.7230     -5.8070    -17.5740      1.7700     78.3900
     75     -3.8110     -5.5300    -18.7810      1.7700     78.3900
     76     -3.2560     -6.7550    -19.5020      1.7700     78.3900
     77     -3.0640     -7.7920    -18.8280      1.5900     78.3900
     78     -3.0370     -6.6320    -20.7250      1.5900     78.3900
     79     -2.4100     -6.8390    -16.9430      0.0100     78.3900
     80     -3.4400     -7.9410    -16.3200      0.0100     78.3900
     81     -3.5190     -4.9880    -16.0080      0.0100     78.3900
     82     -5.2400     -6.7380    -17.8030      0.0100     78.3900
     83     -5.4420     -4.9880    -17.5540      0.0100     78.3900
     84     -4.3630     -4.9650    -19.5320      0.0100     78.3900
     85     -2.9440     -4.9540    -18.4570      0.0100     78.3900
     86     -5.9680     -5.1490    -14.9710      1.6800     78.3900
     87     -7.0010     -5.1650    -13.9430      1.7700     78.3900
     88     -8.2990     -4.6460    -14.5480      1.7700     78.3900
     89     -8.2930     -3.7760    -15.4250      1.5900     78.3900
     90     -6.6000     -4.3210    -12.7110      1.7700     78.3900
     91     -7.5130     -4.6260    -11.5340      1.7700     78.3900
     92     -5.1440     -4.5690    -12.3410      1.7700     78.3900
     93     -5.9850     -4.4440    -15.4630      0.0100     78.3900
     94     -7.1460     -6.0780    -13.6510      0.0100     78.3900
     95     -6.6980     -3.3810    -12.9320      0.0100     78.3900
     96     -7.2620     -4.0620    -10.7850      0.0100     78.3900
     97     -8.4310     -4.4450    -11.7910      0.0100     78.3900
     98     -7.4150     -5.5600    -11.2920      0.0100     78.3900
     99     -4.9340     -4.0730    -11.5350      0.0100     78.3900
    100     -5.0140     -5.5180    -12.1880      0.0100     78.3900
    101     -4.5770     -4.2720    -13.0700      0.0100     78.3900
    102     -9.4210     -5.1850    -14.0680      1.6800     78.3900
    103    -10.7340     -4.8460    -14.5970      1.7700     78.3900
    104    -11.7540     -4.7600    -13.4730      1.7700     78.3900
    105    -11.6040     -5.3920    -12.4240      1.5900     78.3900
    106    -11.2300     -5.8870    -15.6120      1.7700     78.3900
    107    -10.3590     -6.0390    -16.8310      1.7700     78.3900
    108     -9.2610     -6.8880    -16.8210      1.7700     78.3900
    109    -10.6390     -5.3420    -17.9980      1.7700     78.3900
    110     -8.4600     -7.0320    -17.9370      1.7700     78.3900
    111     -9.8460     -5.4780    -19.1200      1.7700     78.3900
    112     -8.7570     -6.3240    -19.0850      1.7700     78.3900
    113     -7.9650     -6.4630    -20.2020      1.5900     78.3900
    114    -12.6340     -4.1290    -13.5960      0.0100     78.3900
    115     -9.4430     -5.7570    -13.4260      0.0100     78.3900
    116    -10.6660     -3.9790    -15.0260      0.0100     78.3900
    117    -11.2720     -6.7510    -15.1720      0.0100     78.3900
    118    -12.1140     -5.6260    -15.9140      0.0100     78.3900
    119     -9.0610     -7.3680    -16.0500      0.0100     78.3900
    120    -11.3740     -4.7730    -18.0240      0.0100     78.3900
    121     -7.7260     -7.6020    -17.9160      0.0100     78.3900
    122    -10.0440     -5.0020    -19.8940      0.0100     78.3900
    123     -7.3230     -6.9800    -20.0370      0.0100     78.3900
    124    -16.7800     -6.8020     -8.3600      1.6800     78.3900
    125    -15.4430     -7.3030     -8.0570      1.7700     78.3900
    126    -14.4050     -6.5940     -8.9200      1.7700     78.3900
    127    -14.7240     -5.8940     -9.8830      1.5900     78.3900
    128    -15.3230     -8.8310     -8.2650      1.7700     78.3900
    129    -16.4080     -9.5620     -7.5010      1.7700     78.3900
    130    -15.3670     -9.1840     -9.7510      1.7700     78.3900
    131    -17.4560     -7.4640     -8.0060      0.0100     78.3900
    132    -16.9270     -6.6870     -9.1990      0.0100     78.3900
    133    -15.2550     -7.0880     -7.1300      0.0100     78.3900
    134    -14.4650     -9.1230     -7.9190      0.0100     78.3900
    135    -16.1660    -10.4990     -7.4280      0.0100     78.3900
    136    -16.4900     -9.1720     -6.6170      0.0100     78.3900
    137    -17.2470     -9.4740     -7.9800      0.0100     78.3900
    138    -15.4480    -10.1460     -9.8440      0.0100     78.3900
    139    -16.1330     -8.7480    -10.1560      0.0100     78.3900
    140    -14.5490     -8.8780    -10.1730      0.0100     78.3900
    141    -13.1420     -6.7980     -8.5490      1.6800     78.3900
    142    -11.9830     -6.4210     -9.3450      1.7700     78.3900
    143    -11.2520     -7.6890     -9.7700      1.7700     78.3900
    144    -11.1090     -8.6260     -8.9780      1.5900     78.3900
    145    -11.0420     -5.5070     -8.5560      1.7700     78.3900
    146    -12.9240     -7.1710     -7.8060      0.0100     78.3900
    147    -12.2620     -5.9360    -10.1380      0.0100     78.3900
    148    -10.2920     -5.2610     -9.1210      0.0100     78.3900
    149    -11.5270     -4.7120     -8.2850      0.0100     78.3900
    150    -10.7240     -5.9830     -7.7720      0.0100     78.3900
    151    -10.7950     -7.7200    -11.0180      1.6800     78.3900
    152    -10.2370     -8.9240    -11.6250      1.7700     78.3900
    153     -8.8070     -8.6240    -12.0510      1.7700     78.3900
    154     -8.5820     -7.8420    -12.9840      1.5900     78.3900
    155    -11.0700     -9.4010    -12.8240      1.7700     78.3900
    156    -10.5980    -10.7720    -13.2950      1.7700     78.3900
    157    -12.5530     -9.4280    -12.4710      1.7700     78.3900
    158    -10.7980     -7.0400    -11.5450      0.0100     78.3900
    159    -10.2110     -9.6280    -10.9580      0.0100     78.3900
    160    -10.9500     -8.7760    -13.5560      0.0100     78.3900
    161    -11.1570    -11.0620    -14.0330      0.0100     78.3900
    162     -9.6750    -10.7050    -13.5860      0.0100     78.3900
    163    -10.6680    -11.4000    -12.5590      0.0100     78.3900
    164    -13.0520     -9.7680    -13.2290      0.0100     78.3900
    165    -12.6840    -10.0050    -11.7020      0.0100     78.3900
    166    -12.8440     -8.5260    -12.2610      0.0100     78.3900
    167     -7.8410     -9.2460    -11.3780      1.6800     78.3900
    168     -6.4570     -9.2260    -11.8290      1.7700     78.3900
    169     -6.2270    -10.4240    -12.7410      1.7700     78.3900
    170     -6.5960    -11.5520    -12.3980      1.5900     78.3900
    171     -5.4760     -9.2630    -10.6570      1.7700     78.3900
    172     -4.0210     -9.1510    -11.1100      1.7700     78.3900
    173     -3.0310     -9.3060     -9.9680      1.7700     78.3900
    174     -1.5990     -9.2000    -10.4730      1.7700     78.3900
    175     -1.3110     -7.8920    -11.1210      1.6800     78.3900
    176     -7.9660     -9.6880    -10.6510      0.0100     78.3900
    177     -6.2900     -8.4050    -12.3180      0.0100     78.3900
    178     -5.6650     -8.5210    -10.0620      0.0100     78.3900
    179     -5.5800    -10.1030    -10.1830      0.0100     78.3900
    180     -3.8380     -9.8470    -11.7600      0.0100     78.3900
    181     -3.8810     -8.2780    -11.5100      0.0100     78.3900
    182     -3.1790     -8.6050     -9.3140      0.0100     78.3900
    183     -3.1480    -10.1750     -9.5540      0.0100     78.3900
    184     -0.9910     -9.3030     -9.7240      0.0100     78.3900
    185     -1.4420     -9.8990    -11.1270      0.0100     78.3900
    186     -1.4400     -7.2300    -10.5400      0.0100     78.3900
    187     -0.4660     -7.8700    -11.4000      0.0100     78.3900
    188     -1.8490     -7.7730    -11.8180      0.0100     78.3900
    189     -5.6170    -10.1760    -13.8940      1.6800     78.3900
    190     -5.4130    -11.1970    -14.9080      1.7700     78.3900
    191     -3.9330    -11.5300    -15.0390      1.7700     78.3900
    192     -3.0620    -10.6930    -14.7850      1.5900     78.3900
    193     -5.9480    -10.7420    -16.2700      1.7700     78.3900
    194     -7.3140    -10.0940    -16.1150      1.7700     78.3900
    195     -5.0390     -9.7980    -16.8530      1.5900     78.3900
    196     -3.6370    -12.5270    -15.3640      0.0100     78.3900
    197     -5.3070     -9.4050    -14.1150      0.0100     78.3900
    198     -5.8850    -12.0010    -14.6420      0.0100     78.3900
    199     -6.0370    -11.5100    -16.8550      0.0100     78.3900
    200     -4.2850    -10.1530    -16.9570      0.0100     78.3900
    201     -7.7310     -9.9880    -16.9840      0.0100     78.3900
    202     -7.8830    -10.6490    -15.5590      0.0100     78.3900
    203     -7.2230     -9.2220    -15.7010      0.0100     78.3900
    204     -7.0730     -4.5000      4.6250      1.6800     78.3900
    205     -6.3910     -5.2540      3.5820      1.7700     78.3900
    206     -7.4530     -5.7450      2.6080      1.7700     78.3900
    207     -8.4380     -6.3660      3.0250      1.5900     78.3900
    208     -5.5880     -6.4360      4.1610      1.7700     78.3900
    209     -4.4810     -5.9220      5.0880      1.7700     78.3900
    210     -5.0010     -7.2880      3.0380      1.7700     78.3900
    211     -3.8350     -7.0060      5.9280      1.7700     78.3900
    212     -6.4290     -4.3480      5.3880      0.0100     78.3900
    213     -7.7690     -4.9040      4.9290      0.0100     78.3900
    214     -5.7710     -4.6790      3.1060      0.0100     78.3900
    215     -6.1910     -6.9900      4.6790      0.0100     78.3900
    216     -3.7870     -5.5130      4.5480      0.0100     78.3900
    217     -4.8610     -5.2660      5.6930      0.0100     78.3900
    218     -4.4110     -7.9550      3.4240      0.0100     78.3900
    219     -5.7240     -7.7220      2.5600      0.0100     78.3900
    220     -4.5020     -6.7160      2.4350      0.0100     78.3900
    221     -3.2780     -6.5910      6.6050      0.0100     78.3900
    222     -4.5290     -7.5360      6.3500      0.0100     78.3900
    223     -3.2920     -7.5700      5.3540      0.0100     78.3900
    224     -7.2620     -5.4570      1.3170      1.6800     78.3900
    225     -8.2670     -5.8250      0.3280      1.7700     78.3900
    226     -8.5730     -7.3090      0.4370      1.7700     78.3900
    227     -7.6720     -8.1470      0.5480      1.5900     78.3900
    228     -7.8080     -5.4660     -1.0980      1.7700     78.3900
    229     -7.8150     -3.9600     -1.2970      1.7700     78.3900
    230     -6.4330     -6.0560     -1.3910      1.7700     78.3900
    231     -6.5710     -5.0560      0.9980      0.0100     78.3900
    232     -9.0730     -5.3210      0.5200      0.0100     78.3900
    233     -8.4320     -5.8510     -1.7320      0.0100     78.3900
    234     -7.5480     -3.7610     -2.2080      0.0100     78.3900
    235     -8.7100     -3.6240     -1.1330      0.0100     78.3900
    236     -7.1900     -3.5560     -0.6740      0.0100     78.3900
    237     -6.1770     -5.8240     -2.2980      0.0100     78.3900
    238     -5.7910     -5.6910     -0.7620      0.0100     78.3900
    239     -6.4770     -7.0210     -1.2970      0.0100     78.3900
    240     -9.8590     -7.6340      0.4010      1.6800     78.3900
    241    -10.3010     -9.0140      0.5020      1.7700     78.3900
    242    -10.1060     -9.7320     -0.8250      1.7700     78.3900
    243    -10.2370     -9.1420     -1.9010      1.5900     78.3900
    244    -11.7740     -9.0720      0.9070      1.7700     78.3900
    245    -12.1090     -8.2620      2.1460      1.7700     78.3900
    246    -11.5350     -8.9090      3.3920      1.7700     78.3900
    247    -11.8430     -8.1400      4.5940      1.6800     78.3900
    248    -11.7890     -8.6280      5.8300      1.7700     78.3900
    249    -11.4500     -9.8940      6.0380      1.6800     78.3900
    250    -12.0850     -7.8490      6.8600      1.6800     78.3900
    251     -9.8450    -10.7900     -0.8250      0.0100     78.3900
    252    -10.5000     -7.0670      0.3170      0.0100     78.3900
    253     -9.7810     -9.4720      1.1800      0.0100     78.3900
    254    -12.3110     -8.7280      0.1760      0.0100     78.3900
    255    -12.0110     -9.9960      1.0860      0.0100     78.3900
    256    -11.7320     -7.3720      2.0620      0.0100     78.3900
    257    -13.0720     -8.2070      2.2460      0.0100     78.3900
    258    -11.9120     -9.7960      3.4950      0.0100     78.3900
    259    -10.5700     -8.9660      3.3080      0.0100     78.3900
    260    -12.0740     -7.3180      4.4960      0.0100     78.3900
    261    -11.2630    -10.4040      5.3710      0.0100     78.3900
    262    -11.4170    -10.2040      6.8390      0.0100     78.3900
    263    -12.3110     -7.0290      6.7290      0.0100     78.3900
    264    -12.0510     -8.1630      7.6600      0.0100     78.3900
    265     -9.7920    -12.7490     -8.2330      1.6800     78.3900
    266    -10.9250    -11.8900     -7.9110      1.7700     78.3900
    267    -10.6810    -11.2140     -6.5690      1.7700     78.3900
    268    -10.3210    -11.8790     -5.5920      1.5900     78.3900
    269    -12.2200    -12.7010     -7.8710      1.7700     78.3900
    270    -12.4530    -13.6370     -9.0600      1.7700     78.3900
    271    -13.7280    -14.4360     -8.8540      1.7700     78.3900
    272    -12.5070    -12.8590    -10.3670      1.7700     78.3900
    273     -9.7680    -12.8870     -9.2330      0.0100     78.3900
    274     -9.8280    -13.5190     -7.8520      0.0100     78.3900
    275    -11.0180    -11.2010     -8.5880      0.0100     78.3900
    276    -12.2110    -13.2490     -7.0700      0.0100     78.3900
    277    -12.9660    -12.0820     -7.8400      0.0100     78.3900
    278    -11.7100    -14.2570     -9.1230      0.0100     78.3900
    279    -13.8700    -15.0080     -9.6240      0.0100     78.3900
    280    -13.6360    -14.9760     -8.0530      0.0100     78.3900
    281    -14.4730    -13.8230     -8.7550      0.0100     78.3900
    282    -12.7980    -13.4540    -11.0760      0.0100     78.3900
    283    -13.1340    -12.1250    -10.2730      0.0100     78.3900
    284    -11.6220    -12.5150    -10.5670      0.0100     78.3900
    285    -10.8840     -9.8980     -6.5220      1.6800     78.3900
    286    -10.5380     -9.1130     -5.3470      1.7700     78.3900
    287    -11.6030     -8.0620     -5.0770      1.7700     78.3900
    288    -12.3420     -7.6430     -5.9720      1.5900     78.3900
    289     -9.1750     -8.4300     -5.5160      1.7700     78.3900
    290     -7.9830     -9.3700     -5.6900      1.7700     78.3900
    291     -6.7740     -8.6040     -6.1880      1.7700     78.3900
    292     -7.6640    -10.0820     -4.3860      1.7700     78.3900
    293    -11.2240     -9.4370     -7.1630      0.0100     78.3900
    294    -10.5070     -9.7050     -4.5800      0.0100     78.3900
    295     -9.2140     -7.8640     -6.3030      0.0100     78.3900
    296     -9.0060     -7.8900     -4.7280      0.0100     78.3900
    297     -8.2090    -10.0450     -6.3490      0.0100     78.3900
    298     -6.0410     -9.2240     -6.3230      0.0100     78.3900
    299     -6.9990     -8.1690     -7.0260      0.0100     78.3900
    300     -6.5270     -7.9390     -5.5260      0.0100     78.3900
    301     -6.7290    -10.3400     -4.3870      0.0100     78.3900
    302     -7.8400     -9.4800     -3.6460      0.0100     78.3900
    303     -8.2240    -10.8710     -4.3110      0.0100     78.3900
    304    -11.6650     -7.6460     -3.8120      1.6800     78.3900
    305    -12.5170     -6.5380     -3.4030      1.7700     78.3900
    306    -12.3160     -5.3420     -4.3250      1.7700     78.3900
    307    -11.1880     -5.0110     -4.6990      1.5900     78.3900
    308    -12.1900     -6.1540     -1.9560      1.7700     78.3900
    309    -13.0550     -5.0520     -1.3620      1.7700     78.3900
    310    -12.6620     -4.7200      0.0680      1.7700     78.3900
    311    -11.7090     -5.3430      0.5840      1.5900     78.3900
    312    -13.3060     -3.8350      0.6720      1.5900     78.3900
    313    -11.2170     -7.9930     -3.1660      0.0100     78.3900
    314    -13.4500     -6.8010     -3.4520      0.0100     78.3900
    315    -12.3010     -6.9410     -1.3990      0.0100     78.3900
    316    -11.2700     -5.8500     -1.9220      0.0100     78.3900
    317    -12.9580     -4.2490     -1.8960      0.0100     78.3900
    318    -13.9810     -5.3400     -1.3610      0.0100     78.3900
    319    -13.4200     -4.6940     -4.6950      1.6800     78.3900
    320    -13.3710     -3.5170     -5.5530      1.7700     78.3900
    321    -13.3410     -2.2570     -4.6990      1.7700     78.3900
    322    -14.1360     -2.1110     -3.7640      1.5900     78.3900
    323    -14.5660     -3.4780     -6.5060      1.7700     78.3900
    324    -14.5930     -2.2670     -7.4450      1.7700     78.3900
    325    -13.3660     -2.2380     -8.3470      1.7700     78.3900
    326    -15.8570     -2.2560     -8.2780      1.7700     78.3900
    327    -14.2150     -4.9210     -4.4590      0.0100     78.3900
    328    -12.5620     -3.5500     -6.0880      0.0100     78.3900
    329    -14.5460     -4.2760     -7.0580      0.0100     78.3900
    330    -15.3800     -3.4600     -5.9790      0.0100     78.3900
    331    -14.5820     -1.4640     -6.9010      0.0100     78.3900
    332    -13.4540     -1.5050     -8.9760      0.0100     78.3900
    333    -12.5750     -2.1120     -7.7990      0.0100     78.3900
    334    -13.3060     -3.0800     -8.8250      0.0100     78.3900
    335    -15.8370     -1.4900     -8.8730      0.0100     78.3900
    336    -15.9020     -3.0760     -8.7960      0.0100     78.3900
    337    -16.6240     -2.1970     -7.6870      0.0100     78.3900
    338    -12.4260     -1.3490     -5.0310      1.6800     78.3900
    339    -12.2080     -0.1110     -4.2870      1.7700     78.3900
    340    -12.6070      1.0500     -5.1920      1.7700     78.3900
    341    -11.8490      1.4440     -6.0830      1.5900     78.3900
    342    -10.7540     -0.0070     -3.8390      1.7700     78.3900
    343    -10.2570     -1.2450     -3.1120      1.7700     78.3900
    344    -11.2360     -1.6220     -1.6480      2.1000     78.3900
    345    -10.6790     -0.3420     -0.5290      1.7700     78.3900
    346    -11.9010     -1.4310     -5.7070      0.0100     78.3900
    347    -12.7690     -0.1030     -3.4960      0.0100     78.3900
    348    -10.1940      0.1240     -4.6210      0.0100     78.3900
    349    -10.6640      0.7480     -3.2370      0.0100     78.3900
    350    -10.3060     -2.0060     -3.7110      0.0100     78.3900
    351     -9.3400     -1.1020     -2.8320      0.0100     78.3900
    352    -11.0990     -0.4740      0.3350      0.0100     78.3900
    353     -9.7140     -0.3990     -0.4390      0.0100     78.3900
    354    -10.9270      0.5230     -0.8900      0.0100     78.3900
    355    -13.8000      1.6010     -4.9520      1.6800     78.3900
    356    -14.3410      2.6280     -5.8330      1.7700     78.3900
    357    -13.5650      3.9350     -5.7530      1.7700     78.3900
    358    -13.6490      4.7460     -6.6820      1.5900     78.3900
    359    -15.8120      2.8820     -5.5020      1.7700     78.3900
    360    -14.3090      1.3970     -4.2900      0.0100     78.3900
    361    -14.2870      2.3070     -6.7470      0.0100     78.3900
    362    -16.1890      3.4730     -6.1720      0.0100     78.3900
    363    -16.2860      2.0360     -5.5020      0.0100     78.3900
    364    -15.8710      3.2940     -4.6250      0.0100     78.3900
    365    -12.8220      4.1630     -4.6700      1.6800     78.3900
    366    -12.0030      5.3560     -4.5690      1.7700     78.3900
    367    -10.7330      5.3260     -5.3850      1.7700     78.3900
    368    -10.0640      6.3580     -5.5070      1.5900     78.3900
    369    -12.7790      3.6420     -3.9880      0.0100     78.3900
    370    -12.5260      6.1180     -4.8630      0.0100     78.3900
    371    -11.7550      5.4830     -3.6400      0.0100     78.3900
    372    -10.3890      4.1740     -5.9530      1.6800     78.3900
    373     -9.1620      4.0430     -6.7150      1.7700     78.3900
    374     -7.9400      4.0800     -5.8100      1.7700     78.3900
    375     -8.0300      4.1070     -4.5850      1.5900     78.3900
    376    -10.8540      3.4520     -5.9100      0.0100     78.3900
    377     -9.1660      3.2000     -7.1950      0.0100     78.3900
    378     -9.0970      4.7700     -7.3540      0.0100     78.3900
    379     -6.7740      4.0850     -6.4480      1.6800     78.3900
    380     -5.5280      4.1150     -5.6990      1.7700     78.3900
    381     -5.4030      5.4280     -4.9310      1.7700     78.3900
    382     -6.0880      6.4160     -5.2130      1.5900     78.3900
    383     -4.3370      3.9290     -6.6370      1.7700     78.3900
    384     -4.0560      5.1610     -7.4700      1.7700     78.3900
    385     -3.0800      5.8770     -7.1560      1.5900     78.3900
    386     -4.8170      5.4190     -8.4270      1.5900     78.3900
    387     -6.6800      4.0710     -7.3030      0.0100     78.3900
    388     -5.5150      3.3890     -5.0560      0.0100     78.3900
    389     -3.5460      3.7360     -6.1100      0.0100     78.3900
    390     -4.5210      3.1930     -7.2410      0.0100     78.3900
    391     -4.5070      5.4280     -3.9410      1.6800     78.3900
    392     -4.3720      6.5880     -3.0680      1.7700     78.3900
    393     -3.6010      7.7180     -3.7400      1.7700     78.3900
    394     -4.0080      8.8820     -3.6520      1.5900     78.3900
    395     -3.6870      6.1790     -1.7610      1.7700     78.3900
    396     -3.3910      7.3070     -0.7700      1.7700     78.3900
    397     -4.6070      8.2020     -0.5800      1.7700     78.3900
    398     -2.9360      6.7310      0.5660      1.7700     78.3900
    399     -3.9750      4.7780     -3.7590      0.0100     78.3900
    400     -5.2580      6.9200     -2.8550      0.0100     78.3900
    401     -4.2610      5.5430     -1.3070      0.0100     78.3900
    402     -2.8390      5.7630     -1.9830      0.0100     78.3900
    403     -2.6750      7.8560     -1.1270      0.0100     78.3900
    404     -4.4240      8.8370      0.1290      0.0100     78.3900
    405     -4.7850      8.6730     -1.4090      0.0100     78.3900
    406     -5.3700      7.6510     -0.3420      0.0100     78.3900
    407     -2.7020      7.4610      1.1610      0.0100     78.3900
    408     -3.6600      6.2110      0.9490      0.0100     78.3900
    409     -2.1630      6.1640      0.4190      0.0100     78.3900
    410     -2.4900      7.4050     -4.4120      1.6800     78.3900
    411     -1.6850      8.4620     -5.0190      1.7700     78.3900
    412     -2.5240      9.3080     -5.9690      1.7700     78.3900
    413     -2.4640     10.5420     -5.9390      1.5900     78.3900
    414     -0.4810      7.8690     -5.7540      1.7700     78.3900
    415      0.6890      8.8420     -5.8510      1.7700     78.3900
    416      1.5600      8.6070     -7.0790      1.7700     78.3900
    417      2.7030      9.6150     -7.1190      1.7700     78.3900
    418      3.3420      9.7180     -8.4590      1.6800     78.3900
    419     -3.1850      8.8190     -6.6840      0.0100     78.3900
    420     -2.1890      6.6080     -4.5270      0.0100     78.3900
    421     -1.3480      9.0340     -4.3120      0.0100     78.3900
    422     -0.1770      7.0810     -5.2770      0.0100     78.3900
    423     -0.7480      7.6300     -6.6550      0.0100     78.3900
    424      0.3440      9.7470     -5.8990      0.0100     78.3900
    425      1.2490      8.7410     -5.0650      0.0100     78.3900
    426      1.9360      7.7140     -7.0450      0.0100     78.3900
    427      1.0260      8.7130     -7.8820      0.0100     78.3900
    428      2.3590     10.4910     -6.8850      0.0100     78.3900
    429      3.3840      9.3450     -6.4840      0.0100     78.3900
    430      2.7410      9.9740     -9.0640      0.0100     78.3900
    431      4.0020     10.3160     -8.4370      0.0100     78.3900
    432      3.6760      8.9290     -8.6990      0.0100     78.3900
    433      3.6210      1.8510     -0.0080      1.6800     78.3900
    434      3.6640      3.0920     -0.7690      1.7700     78.3900
    435      2.2480      3.4730     -1.1760      1.7700     78.3900
    436      1.3450      2.6340     -1.2150      1.5900     78.3900
    437      4.5650      2.9660     -2.0020      1.7700     78.3900
    438      4.4450      1.3110     -0.2330      0.0100     78.3900
    439      2.9280      1.3660     -0.1660      0.0100     78.3900
    440      4.0170      3.7980     -0.2050      0.0100     78.3900
    441      4.5890      3.8180     -2.4640      0.0100     78.3900
    442      5.4580      2.7190     -1.7160      0.0100     78.3900
    443      4.2040      2.2820     -2.5880      0.0100     78.3900
    444      2.0720      4.7600     -1.4870      1.6800     78.3900
    445      0.7410      5.2650     -1.8120      1.7700     78.3900
    446      0.1670      4.5630     -3.0360      1.7700     78.3900
    447     -1.0410      4.3090     -3.1080      1.5900     78.3900
    448      0.7970      6.7780     -2.0360      1.7700     78.3900
    449      2.6960      5.3500     -1.5170      0.0100     78.3900
    450      0.1500      5.0930     -1.0630      0.0100     78.3900
    451     -0.0950      7.0990     -2.2410      0.0100     78.3900
    452      1.1260      7.2050     -1.2300      0.0100     78.3900
    453      1.3940      6.9650     -2.7770      0.0100     78.3900
    454      1.0200      4.2350     -4.0090      1.6800     78.3900
    455      0.5460      3.5870     -5.2250      1.7700     78.3900
    456     -0.0700      2.2210     -4.9510      1.7700     78.3900
    457     -0.8760      1.7440     -5.7590      1.5900     78.3900
    458      1.7000      3.4480     -6.2190      1.7700     78.3900
    459      2.8160      2.5490     -5.7210      1.7700     78.3900
    460      4.0620      2.6370     -6.5860      1.7700     78.3900
    461      5.1390      1.8220     -6.0270      1.6800     78.3900
    462      6.0510      2.2610     -5.1630      1.7700     78.3900
    463      6.0440      3.5210     -4.7490      1.6800     78.3900
    464      6.9820      1.4330     -4.7120      1.6800     78.3900
    465      1.8680      4.3770     -3.9870      0.0100     78.3900
    466     -0.1380      4.1440     -5.6290      0.0100     78.3900
    467      1.3590      3.0690     -7.0440      0.0100     78.3900
    468      2.0770      4.3250     -6.3880      0.0100     78.3900
    469      3.0560      2.8130     -4.8190      0.0100     78.3900
    470      2.5090      1.6290     -5.7270      0.0100     78.3900
    471      3.8610      2.3120     -7.4770      0.0100     78.3900
    472      4.3630      3.5580     -6.6280      0.0100     78.3900
    473      5.1870      1.0000     -6.2750      0.0100     78.3900
    474      5.4440      4.0650     -5.0390      0.0100     78.3900
    475      6.6380      3.7940     -4.1910      0.0100     78.3900
    476      6.9950      0.6150     -4.9770      0.0100     78.3900
    477      7.5730      1.7140     -4.1530      0.0100     78.3900
    478      0.2850      1.5810     -3.8380      1.6800     78.3900
    479     -0.2310      0.2630     -3.4960      1.7700     78.3900
    480     -1.3800      0.3200     -2.4950      1.7700     78.3900
    481     -1.7580     -0.7170     -1.9420      1.5900     78.3900
    482      0.8970     -0.6140     -2.9510      1.7700     78.3900
    483      1.9390     -0.9390     -4.0060      1.7700     78.3900
    484      3.1760     -1.1500     -3.5740      1.6800     78.3900
    485      1.6320     -0.9990     -5.1980      1.5900     78.3900
    486      0.8330      1.8980     -3.2570      0.0100     78.3900
    487     -0.5710     -0.1540     -4.3030      0.0100     78.3900
    488      1.3400     -0.1470     -2.2250      0.0100     78.3900
    489      0.5240     -1.4490     -2.6290      0.0100     78.3900
    490      3.3530     -1.0990     -2.7340      0.0100     78.3900
    491      3.8010     -1.3380     -4.1340      0.0100     78.3900
    492     -1.9440      1.5010     -2.2600      1.6800     78.3900
    493     -3.0810      1.6770     -1.3720      1.7700     78.3900
    494     -4.3120      2.0690     -2.1790      1.7700     78.3900
    495     -4.2140      2.7700     -3.1900      1.5900     78.3900
    496     -2.7870      2.7430     -0.3130      1.7700     78.3900
    497     -1.4020      2.3390      0.7800      2.1000     78.3900
    498     -1.6760      2.2360     -2.6170      0.0100     78.3900
    499     -3.2720      0.8430     -0.9140      0.0100     78.3900
    500     -2.5750      3.5760     -0.7620      0.0100     78.3900
    501     -3.5760      2.8560      0.2400      0.0100     78.3900
    502     -0.3780      2.4170      0.1580      0.0100     78.3900
    503     -5.4740      1.6120     -1.7170      1.6800     78.3900
    504     -6.7410      1.8470     -2.3920      1.7700     78.3900
    505     -7.7470      2.4170     -1.4010      1.7700     78.3900
    506     -7.5820      2.3050     -0.1840      1.5900     78.3900
    507     -7.2860      0.5540     -3.0090      1.7700     78.3900
    508     -6.3920     -0.1570     -4.0270      1.7700     78.3900
    509     -6.6880     -1.6470     -4.0420      1.7700     78.3900
    510     -6.5800      0.4290     -5.4180      1.7700     78.3900
    511     -5.5530      1.1510     -0.9950      0.0100     78.3900
    512     -6.6170      2.4980     -3.1010      0.0100     78.3900
    513     -7.4520     -0.0740     -2.2890      0.0100     78.3900
    514     -8.1180      0.7660     -3.4610      0.0100     78.3900
    515     -5.4660     -0.0290     -3.7690      0.0100     78.3900
    516     -6.0040     -2.1000     -4.5600      0.0100     78.3900
    517     -6.6870     -1.9790     -3.1300      0.0100     78.3900
    518     -7.5580     -1.7920     -4.4450      0.0100     78.3900
    519     -6.1350     -0.1420     -6.0640      0.0100     78.3900
    520     -7.5280      0.4750     -5.6160      0.0100     78.3900
    521     -6.1930      1.3180     -5.4400      0.0100     78.3900
    522     -8.8040      3.0260     -1.9390      1.6800     78.3900
    523     -9.8590      3.6330     -1.1380      1.7700     78.3900
    524    -11.2140      3.0730     -1.5450      1.7700     78.3900
    525    -11.4940      2.8990     -2.7360      1.5900     78.3900
    526     -9.8610      5.1590     -1.2890      1.7700     78.3900
    527     -8.7420      5.8980     -0.5530      1.7700     78.3900
    528     -8.6870      7.3480     -0.9960      1.7700     78.3900
    529     -8.9390      5.8110      0.9510      1.7700     78.3900
    530    -11.9460      2.8220     -0.7770      0.0100     78.3900
    531     -8.9330      3.1000     -2.7870      0.0100     78.3900
    532     -9.7160      3.4150     -0.2040      0.0100     78.3900
    533     -9.7750      5.3710     -2.2320      0.0100     78.3900
    534    -10.7030      5.4980     -0.9480      0.0100     78.3900
    535     -7.8940      5.4790     -0.7690      0.0100     78.3900
    536     -7.9950      7.8050     -0.4930      0.0100     78.3900
    537     -8.4840      7.3810     -1.9440      0.0100     78.3900
    538     -9.5470      7.7630     -0.8270      0.0100     78.3900
    539     -8.2250      6.2990      1.3910      0.0100     78.3900
    540     -9.7970      6.2010      1.1800      0.0100     78.3900
    541     -8.9170      4.8800      1.2190      0.0100     78.3900
    542     -4.4970     -1.7190      2.1620      1.6800     78.3900
    543     -3.3460     -2.1640      1.3830      1.7700     78.3900
    544     -3.8410     -3.0800      0.2730      1.7700     78.3900
    545     -4.5230     -4.0790      0.5350      1.5900     78.3900
    546     -2.3240     -2.8770      2.2840      1.7700     78.3900
    547     -1.8780     -1.9530      3.4220      1.7700     78.3900
    548     -1.1200     -3.3240      1.4680      1.7700     78.3900
    549     -1.3830     -2.6930      4.6480      1.7700     78.3900
    550     -4.3950     -0.7310      2.3460      0.0100     78.3900
    551     -4.5880     -2.1270      2.9140      0.0100     78.3900
    552     -2.9080     -1.3980      0.9810      0.0100     78.3900
    553     -2.7510     -3.6590      2.6670      0.0100     78.3900
    554     -1.1540     -1.3920      3.1030      0.0100     78.3900
    555     -2.6300     -1.4030      3.6910      0.0100     78.3900
    556     -0.4530     -3.6940      2.0680      0.0100     78.3900
    557     -1.4030     -3.9990      0.8320      0.0100     78.3900
    558     -0.7550     -2.5580      0.9980      0.0100     78.3900
    559     -1.1230     -2.0480      5.3230      0.0100     78.3900
    560     -2.0970     -3.2570      4.9860      0.0100     78.3900
    561     -0.6200     -3.2390      4.4000      0.0100     78.3900
    562     -3.4920     -2.7500     -0.9700      1.6800     78.3900
    563     -4.1300     -3.3750     -2.1120      1.7700     78.3900
    564     -3.2570     -4.2670     -2.9720      1.7700     78.3900
    565     -3.7740     -4.9620     -3.8520      1.5900     78.3900
    566     -2.8900     -2.1690     -1.1710      0.0100     78.3900
    567     -4.8660     -3.9180     -1.7900      0.0100     78.3900
    568     -4.4800     -2.6760     -2.6860      0.0100     78.3900
    569     -1.9460     -4.2690     -2.7450      1.6800     78.3900
    570     -1.0290     -4.9950     -3.6130      1.7700     78.3900
    571      0.0830     -5.6240     -2.7900      1.7700     78.3900
    572      0.6230     -4.9970     -1.8740      1.5900     78.3900
    573     -0.4310     -4.0700     -4.6800      1.7700     78.3900
    574      0.4450     -4.8130     -5.6700      1.7700     78.3900
    575     -0.0980     -5.3600     -6.6540      1.5900     78.3900
    576      1.6760     -4.8530     -5.4610      1.5900     78.3900
    577     -1.5660     -3.8570     -2.0930      0.0100     78.3900
    578     -1.5090     -5.7130     -4.0540      0.0100     78.3900
    579     -1.1520     -3.6490     -5.1740      0.0100     78.3900
    580      0.1130     -3.3950     -4.2460      0.0100     78.3900
    581      0.4270     -6.8670     -3.1330      1.6800     78.3900
    582      1.4520     -7.6290     -2.4300      1.7700     78.3900
    583      2.4380     -8.2540     -3.4090      1.7700     78.3900
    584      3.0110     -9.3110     -3.1330      1.5900     78.3900
    585      0.8180     -8.7070     -1.5510      1.7700     78.3900
    586     -0.0070     -8.1590     -0.4220      1.7700     78.3900
    587      0.5360     -8.0210      0.8450      1.7700     78.3900
    588     -1.3220     -7.7780     -0.6280      1.7700     78.3900
    589     -0.2200     -7.5150      1.8860      1.7700     78.3900
    590     -2.0820     -7.2710      0.4090      1.7700     78.3900
    591     -1.5300     -7.1390      1.6670      1.7700     78.3900
    592      2.6390     -7.7630     -4.3610      0.0100     78.3900
    593      0.0700     -7.2970     -3.7870      0.0100     78.3900
    594      1.9470     -7.0250     -1.8550      0.0100     78.3900
    595      0.2380     -9.2570     -2.1010      0.0100     78.3900
    596      1.5230     -9.2510     -1.1660      0.0100     78.3900
    597      1.4180     -8.2710      0.9970      0.0100     78.3900
    598     -1.6980     -7.8650     -1.4740      0.0100     78.3900
    599      0.1550     -7.4280      2.7330      0.0100     78.3900
    600     -2.9650     -7.0190      0.2590      0.0100     78.3900
    601     -2.0400     -6.7970      2.3660      0.0100     78.3900
    602     -6.9220      4.2960     -9.6410      1.5900     78.3900
    603     -7.7700      5.1250     -9.7170      0.0100     78.3900
    604     -6.4030      4.2950    -10.7100      0.0100     78.3900
    605     -7.5690     -4.8640     -6.3290      1.7700     78.3900
    606     -8.3380     -3.6660     -6.6920      1.7700     78.3900
    607     -7.9890     -2.6760     -7.6300      1.7700     78.3900
    608     -9.0290     -1.7810     -7.5990      1.7700     78.3900
    609     -9.9080     -2.2680     -6.6790      1.6800     78.3900
    610     -9.5140     -3.4190     -6.1080      1.6800     78.3900
    611     -9.2500     -0.5590     -8.3350      1.7700     78.3900
    612    -10.5230      0.0090     -8.3730      1.7700     78.3900
    613    -10.7290      1.1930     -9.0820      1.7700     78.3900
    614     -9.6680      1.8070     -9.7510      1.7700     78.3900
    615     -8.3920      1.2400     -9.7160      1.7700     78.3900
    616     -8.1950      0.0570     -9.0050      1.7700     78.3900
    617     -6.9510     -0.5380     -8.9380      1.5900     78.3900
    618     -6.1370     -0.1460    -10.0510      1.7700     78.3900
    619     -5.3200      1.1040     -9.9220      1.7700     78.3900
    620     -4.6470     -0.2470     -9.7500      1.7700     78.3900
    621     -3.7630     -0.7330    -10.8350      1.7700     78.3900
    622     -2.3450     -0.3580    -10.6370      1.6800     78.3900
    623     -4.2450     -0.6090     -8.3620      1.7700     78.3900
    624     -3.7360      0.3650     -7.5020      1.7700     78.3900
    625     -3.3600      0.0210     -6.2030      1.7700     78.3900
    626     -3.4960     -1.2980     -5.7710      1.7700     78.3900
    627     -4.0030     -2.2790     -6.6200      1.7700     78.3900
    628     -4.3750     -1.9230     -7.9160      1.7700     78.3900
    629    -12.0880      1.7910     -9.1160      1.7700     78.3900
    630     -3.1340     -1.6280     -4.5220      1.5000     78.3900
    631     -4.8650     -2.8540     -8.7480      1.5000     78.3900
    632    -12.1930      2.9080     -8.3510      1.5000     78.3900
    633    -12.4760      2.1530    -10.3670      1.5000     78.3900
    634    -13.0390      0.9370     -8.6560      1.5000     78.3900
    635     -9.8770     -4.0570     -5.4150      0.0100     78.3900
    636     -9.8330      2.7240    -10.2980      0.0100     78.3900
    637     -7.5740      1.7180    -10.2350      0.0100     78.3900
    638     -6.4720     -0.4310    -11.0480      0.0100     78.3900
    639     -3.6330      1.3850     -7.8420      0.0100     78.3900
    640     -2.9660      0.7750     -5.5370      0.0100     78.3900
    641     -4.1030     -3.2960     -6.2710      0.0100     78.3900
    642     -7.0610     -2.7530     -8.1760      0.0100     78.3900
    643    -11.3470     -0.4620     -7.8580      0.0100     78.3900
    644     -5.5180      1.3370     -8.8760      0.0100     78.3900
    645     -5.0980      1.2790    -10.9750      0.0100     78.3900
    646     -4.1120     -0.3390    -11.7900      0.0100     78.3900
    647     -3.8440     -1.8170    -10.9090      0.0100     78.3900
    648     -1.7920     -0.7140    -11.4030      0.0100     78.3900
    649     -2.2640      0.6480    -10.6030      0.0100     78.3900
    650     -2.0100     -0.7520     -9.7690      0.0100     78.3900
    651     -8.1120     -5.4290     -5.5710      0.0100     78.3900
    652     -7.4260     -5.4860     -7.2120      0.0100     78.3900
    653     -6.5980     -4.5670     -5.9340      0.0100     78.3900

     ----------------------------
     INPUT FOR TESSERA DEFINITION
     ----------------------------
     NTSALL  =        60     MTHALL  =         4
     MTHAUT  =         0     AUTFRE  =    2.0000
     NTSFRZ  =        60     KEEPSM  =         0
     AREAKP  =   10.0000     BONDRY  =    1.0000
     AREATL  =    0.0100

     SPHERE     INITS       METHOD
          1        60       FIXPVA
          2        60       FIXPVA
          3        60       FIXPVA
          4        60       FIXPVA
          5        60       FIXPVA
          6        60       FIXPVA
          7        60       FIXPVA
          8        60       FIXPVA
          9        60       FIXPVA
         10        60       FIXPVA
         11        60       FIXPVA
         12        60       FIXPVA
         13        60       FIXPVA
         14        60       FIXPVA
         15        60       FIXPVA
         16        60       FIXPVA
         17        60       FIXPVA
         18        60       FIXPVA
         19        60       FIXPVA
         20        60       FIXPVA
         21        60       FIXPVA
         22        60       FIXPVA
         23        60       FIXPVA
         24        60       FIXPVA
         25        60       FIXPVA
         26        60       FIXPVA
         27        60       FIXPVA
         28        60       FIXPVA
         29        60       FIXPVA
         30        60       FIXPVA
         31        60       FIXPVA
         32        60       FIXPVA
         33        60       FIXPVA
         34        60       FIXPVA
         35        60       FIXPVA
         36        60       FIXPVA
         37        60       FIXPVA
         38        60       FIXPVA
         39        60       FIXPVA
         40        60       FIXPVA
         41        60       FIXPVA
         42        60       FIXPVA
         43        60       FIXPVA
         44        60       FIXPVA
         45        60       FIXPVA
         46        60       FIXPVA
         47        60       FIXPVA
         48        60       FIXPVA
         49        60       FIXPVA
         50        60       FIXPVA
         51        60       FIXPVA
         52        60       FIXPVA
         53        60       FIXPVA
         54        60       FIXPVA
         55        60       FIXPVA
         56        60       FIXPVA
         57        60       FIXPVA
         58        60       FIXPVA
         59        60       FIXPVA
         60        60       FIXPVA
         61        60       FIXPVA
         62        60       FIXPVA
         63        60       FIXPVA
         64        60       FIXPVA
         65        60       FIXPVA
         66        60       FIXPVA
         67        60       FIXPVA
         68        60       FIXPVA
         69        60       FIXPVA
         70        60       FIXPVA
         71        60       FIXPVA
         72        60       FIXPVA
         73        60       FIXPVA
         74        60       FIXPVA
         75        60       FIXPVA
         76        60       FIXPVA
         77        60       FIXPVA
         78        60       FIXPVA
         79        60       FIXPVA
         80        60       FIXPVA
         81        60       FIXPVA
         82        60       FIXPVA
         83        60       FIXPVA
         84        60       FIXPVA
         85        60       FIXPVA
         86        60       FIXPVA
         87        60       FIXPVA
         88        60       FIXPVA
         89        60       FIXPVA
         90        60       FIXPVA
         91        60       FIXPVA
         92        60       FIXPVA
         93        60       FIXPVA
         94        60       FIXPVA
         95        60       FIXPVA
         96        60       FIXPVA
         97        60       FIXPVA
         98        60       FIXPVA
         99        60       FIXPVA
        100        60       FIXPVA
        101        60       FIXPVA
        102        60       FIXPVA
        103        60       FIXPVA
        104        60       FIXPVA
        105        60       FIXPVA
        106        60       FIXPVA
        107        60       FIXPVA
        108        60       FIXPVA
        109        60       FIXPVA
        110        60       FIXPVA
        111        60       FIXPVA
        112        60       FIXPVA
        113        60       FIXPVA
        114        60       FIXPVA
        115        60       FIXPVA
        116        60       FIXPVA
        117        60       FIXPVA
        118        60       FIXPVA
        119        60       FIXPVA
        120        60       FIXPVA
        121        60       FIXPVA
        122        60       FIXPVA
        123        60       FIXPVA
        124        60       FIXPVA
        125        60       FIXPVA
        126        60       FIXPVA
        127        60       FIXPVA
        128        60       FIXPVA
        129        60       FIXPVA
        130        60       FIXPVA
        131        60       FIXPVA
        132        60       FIXPVA
        133        60       FIXPVA
        134        60       FIXPVA
        135        60       FIXPVA
        136        60       FIXPVA
        137        60       FIXPVA
        138        60       FIXPVA
        139        60       FIXPVA
        140        60       FIXPVA
        141        60       FIXPVA
        142        60       FIXPVA
        143        60       FIXPVA
        144        60       FIXPVA
        145        60       FIXPVA
        146        60       FIXPVA
        147        60       FIXPVA
        148        60       FIXPVA
        149        60       FIXPVA
        150        60       FIXPVA
        151        60       FIXPVA
        152        60       FIXPVA
        153        60       FIXPVA
        154        60       FIXPVA
        155        60       FIXPVA
        156        60       FIXPVA
        157        60       FIXPVA
        158        60       FIXPVA
        159        60       FIXPVA
        160        60       FIXPVA
        161        60       FIXPVA
        162        60       FIXPVA
        163        60       FIXPVA
        164        60       FIXPVA
        165        60       FIXPVA
        166        60       FIXPVA
        167        60       FIXPVA
        168        60       FIXPVA
        169        60       FIXPVA
        170        60       FIXPVA
        171        60       FIXPVA
        172        60       FIXPVA
        173        60       FIXPVA
        174        60       FIXPVA
        175        60       FIXPVA
        176        60       FIXPVA
        177        60       FIXPVA
        178        60       FIXPVA
        179        60       FIXPVA
        180        60       FIXPVA
        181        60       FIXPVA
        182        60       FIXPVA
        183        60       FIXPVA
        184        60       FIXPVA
        185        60       FIXPVA
        186        60       FIXPVA
        187        60       FIXPVA
        188        60       FIXPVA
        189        60       FIXPVA
        190        60       FIXPVA
        191        60       FIXPVA
        192        60       FIXPVA
        193        60       FIXPVA
        194        60       FIXPVA
        195        60       FIXPVA
        196        60       FIXPVA
        197        60       FIXPVA
        198        60       FIXPVA
        199        60       FIXPVA
        200        60       FIXPVA
        201        60       FIXPVA
        202        60       FIXPVA
        203        60       FIXPVA
        204        60       FIXPVA
        205        60       FIXPVA
        206        60       FIXPVA
        207        60       FIXPVA
        208        60       FIXPVA
        209        60       FIXPVA
        210        60       FIXPVA
        211        60       FIXPVA
        212        60       FIXPVA
        213        60       FIXPVA
        214        60       FIXPVA
        215        60       FIXPVA
        216        60       FIXPVA
        217        60       FIXPVA
        218        60       FIXPVA
        219        60       FIXPVA
[...]
   415   28   6.0  11.44   20.2   -0.079314   -0.197943   -0.198706
   416   28   6.0  13.26   23.4   -0.105123   -0.208292   -0.209286
   417   28   6.0  18.87   33.3   -0.209568   -0.097990   -0.098709
   418   28   7.0  30.34   59.4   -0.626137   -0.014451   -0.015064
   419   28   1.0   0.00    0.0    0.000000    0.079212    0.065872
   420   28   1.0   0.00    0.0    0.000000    0.268929    0.243173
   421   28   1.0   0.00    0.0    0.000000    0.130958    0.122809
   422   28   1.0   0.00    0.0    0.000000    0.106051    0.101378
   423   28   1.0   0.00    0.0    0.000000    0.134519    0.130202
   424   28   1.0   0.00    0.0    0.000000    0.120722    0.120814
   425   28   1.0   0.00    0.0    0.000000    0.118512    0.116316
   426   28   1.0   0.00    0.0    0.000000    0.125230    0.123768
   427   28   1.0   0.00    0.0    0.000000    0.122589    0.122171
   428   28   1.0   0.00    0.0    0.000000    0.134335    0.134431
   429   28   1.0   0.00    0.0    0.000000    0.134785    0.133730
   430   28   1.0   0.00    0.0    0.000000    0.258630    0.258438
   431   28   1.0   0.00    0.0    0.000000    0.260875    0.259921
   432   28   1.0   0.00    0.0    0.000000    0.259551    0.258905
   433   29   7.0  21.80   42.7    0.053856   -0.335921   -0.565696
   434   29   6.0   6.25   11.0    0.000839   -1.170115    0.017390
   435   30   6.0   3.02    5.3   -0.008742    1.142175    0.512377
   436   30   8.0   1.03    2.3    0.018110   -0.717134   -0.641504
   437   29   6.0  15.74   27.8   -0.031110   -0.229020   -0.360595
   438   29   1.0   0.00    0.0    0.000000    0.199380    0.216442
   439   29   1.0   0.00    0.0    0.000000    0.225907    0.257538
   440   29   1.0   0.00    0.0    0.000000    0.337503    0.092530
   441   29   1.0   0.00    0.0    0.000000    0.114914    0.112257
   442   29   1.0   0.00    0.0    0.000000    0.130953    0.117939
   443   29   1.0   0.00    0.0    0.000000    0.117718    0.109042
   444   30   7.0   8.47   16.6   -0.097824   -0.115566   -0.264427
   445   30   6.0   2.23    3.9   -0.001009   -1.162824   -0.037839
   446   31   6.0   0.00    0.0    0.000000    1.073630    0.480281
   447   31   8.0   0.15    0.3    0.003186   -0.665375   -0.603945
   448   30   6.0  19.70   34.8   -0.089416   -0.183044   -0.329046
   449   30   1.0   0.00    0.0    0.000000    0.266742    0.246868
   450   30   1.0   0.00    0.0    0.000000    0.363577    0.130747
   451   30   1.0   0.00    0.0    0.000000    0.126129    0.118320
   452   30   1.0   0.00    0.0    0.000000    0.135597    0.121141
   453   30   1.0   0.00    0.0    0.000000    0.129270    0.117395
   454   31   7.0   2.97    5.8   -0.058613   -0.089808   -0.260593
   455   31   6.0   1.03    1.8    0.001761   -1.159444   -0.039471
   456   32   6.0   0.00    0.0   -0.000004    1.080780    0.495804
   457   32   8.0   6.51   14.2    0.092057   -0.651578   -0.604361
   458   31   6.0  15.15   26.7   -0.078996   -0.013231   -0.199798
   459   31   6.0   2.12    3.7   -0.023022   -0.253957   -0.230599
   460   31   6.0  14.53   25.6   -0.133078   -0.056593   -0.057736
   461   31   7.0   7.48   14.6   -0.126444   -0.248357   -0.246895
   462   31   6.0   1.67    2.9   -0.029848    0.449375    0.449454
   463   31   7.0  19.86   38.9   -0.253796   -0.358607   -0.360944
   464   31   7.0  25.91   50.7   -0.325914   -0.351446   -0.351231
   465   31   1.0   0.00    0.0    0.000000    0.258171    0.241275
   466   31   1.0   0.00    0.0    0.000000    0.359598    0.132451
   467   31   1.0   0.00    0.0    0.000000    0.134151    0.132176
   468   31   1.0   0.00    0.0    0.000000    0.116906    0.111462
   469   31   1.0   0.00    0.0    0.000000    0.105402    0.092052
   470   31   1.0   0.00    0.0    0.000000    0.128256    0.135204
   471   31   1.0   0.00    0.0    0.000000    0.128454    0.130283
   472   31   1.0   0.00    0.0    0.000000    0.114721    0.111996
   473   31   1.0   0.00    0.0    0.000000    0.263627    0.264662
   474   31   1.0   0.00    0.0    0.000000    0.260125    0.259187
   475   31   1.0   0.00    0.0    0.000000    0.264198    0.263613
   476   31   1.0   0.00    0.0    0.000000    0.261838    0.262557
   477   31   1.0   0.00    0.0    0.000000    0.264097    0.263485
   478   32   7.0   0.00    0.0   -0.000014   -0.083484   -0.249542
   479   32   6.0   1.60    2.8    0.006290   -1.137230   -0.034466
   480   33   6.0   0.89    1.6   -0.001149    1.090529    0.503844
   481   33   8.0   2.23    4.9    0.029023   -0.685075   -0.634829
   482   32   6.0   6.43   11.3   -0.042397   -0.105188   -0.261251
   483   32   6.0   0.08    0.1    0.001610    0.565836    0.556483
   484   32   7.0  16.86   33.0   -0.157120   -0.396034   -0.388183
   485   32   8.0  10.63   23.2    0.172817   -0.646259   -0.653705
   486   32   1.0   0.00    0.0    0.000000    0.249679    0.234643
   487   32   1.0   0.00    0.0    0.000000    0.358332    0.150620
   488   32   1.0   0.00    0.0    0.000000    0.124830    0.109615
   489   32   1.0   0.00    0.0    0.000000    0.153869    0.148657
   490   32   1.0   0.00    0.0    0.000000    0.237754    0.240604
   491   32   1.0   0.00    0.0    0.000000    0.253116    0.252546
   492   33   7.0   0.00    0.0    0.000000   -0.062760   -0.205339
   493   33   6.0   0.81    1.4   -0.009582   -1.149800   -0.042125
   494   34   6.0   0.29    0.5   -0.005317    1.083720    0.496281
   495   34   8.0   0.06    0.1    0.003758   -0.673989   -0.627007
   496   33   6.0   4.75    8.4   -0.039681    0.075289   -0.109206
   497   33  16.0  28.85   36.1    0.082974   -0.321584   -0.321749
   498   33   1.0   0.00    0.0    0.000000    0.256449    0.242102
   499   33   1.0   0.00    0.0    0.000000    0.342109    0.118286
   500   33   1.0   0.00    0.0    0.000000    0.114879    0.109668
   501   33   1.0   0.00    0.0    0.000000    0.116254    0.117477
   502   33   1.0   0.00    0.0    0.000000    0.222173    0.218505
   503   34   7.0   4.48    8.8   -0.067743   -0.069087   -0.206706
   504   34   6.0   0.00    0.0   -0.000054   -1.152534   -0.057862
   505   35   6.0   1.20    2.1   -0.013655    1.102926    0.522840
   506   35   8.0  14.72   32.2    0.124035   -0.653931   -0.632071
   507   34   6.0   2.41    4.3   -0.017082   -0.048799   -0.231662
   508   34   6.0   0.00    0.0   -0.000272   -0.047599   -0.035920
   509   34   6.0   2.15    3.8   -0.005423   -0.389528   -0.391017
   510   34   6.0   1.22    2.1   -0.008259   -0.386811   -0.383586
   511   34   1.0   0.00    0.0    0.000000    0.257056    0.244028
   512   34   1.0   0.00    0.0    0.000000    0.355280    0.136087
   513   34   1.0   0.00    0.0    0.000000    0.118674    0.113401
   514   34   1.0   0.00    0.0    0.000000    0.110218    0.110506
   515   34   1.0   0.00    0.0    0.000000    0.111439    0.100735
   516   34   1.0   0.00    0.0    0.000000    0.125809    0.124349
   517   34   1.0   0.00    0.0    0.000000    0.117703    0.119386
   518   34   1.0   0.00    0.0    0.000000    0.127383    0.132034
   519   34   1.0   0.00    0.0    0.000000    0.123922    0.124060
   520   34   1.0   0.00    0.0    0.000000    0.123633    0.125313
   521   34   1.0   0.00    0.0    0.000000    0.125750    0.122277
   522   35   7.0   1.31    2.6   -0.019380   -0.291000   -0.245890
   523   35   6.0   2.20    3.9   -0.035143   -0.012489    0.006848
   524   35   6.0  13.80   24.3   -0.140103    0.355547    0.356080
   525   35   8.0   2.01    4.4   -0.001841   -0.465607   -0.479014
   526   35   6.0   5.57    9.8   -0.036787   -0.214567   -0.218248
   527   35   6.0   2.03    3.6   -0.011912   -0.043104   -0.036679
   528   35   6.0  22.62   39.9   -0.025705   -0.357133   -0.362743
   529   35   6.0  27.87   49.2   -0.039398   -0.363459   -0.363821
   530   35   1.0   0.00    0.0    0.000000    0.091169    0.082530
   531   35   1.0   0.00    0.0    0.000000    0.280211    0.254139
   532   35   1.0   0.00    0.0    0.000000    0.131368    0.130609
   533   35   1.0   0.00    0.0    0.000000    0.120157    0.114247
   534   35   1.0   0.00    0.0    0.000000    0.124698    0.117967
   535   35   1.0   0.00    0.0    0.000000    0.104447    0.105835
   536   35   1.0   0.00    0.0    0.000000    0.119910    0.117310
   537   35   1.0   0.00    0.0    0.000000    0.117292    0.115191
   538   35   1.0   0.00    0.0    0.000000    0.120699    0.120181
   539   35   1.0   0.00    0.0    0.000000    0.121500    0.116939
   540   35   1.0   0.00    0.0    0.000000    0.120542    0.117583
   541   35   1.0   0.00    0.0    0.000000    0.113730    0.117365
   542   36   7.0  18.33   35.9    0.050604   -0.362060   -0.549231
   543   36   6.0   0.02    0.0    0.001730   -1.218656   -0.002237
   544   37   6.0   0.89    1.6    0.002607    1.173547    0.525830
   545   37   8.0   1.04    2.3    0.023076   -0.696039   -0.651825
   546   36   6.0   0.04    0.1    0.000181    0.201251   -0.068943
   547   36   6.0  10.66   18.8    0.025401   -0.265180   -0.220787
   548   36   6.0  14.19   25.0    0.012763   -0.424639   -0.363056
   549   36   6.0  29.42   51.9    0.014335   -0.365611   -0.356789
   550   36   1.0   0.00    0.0    0.000000    0.191375    0.207316
   551   36   1.0   0.00    0.0    0.000000    0.232402    0.243785
   552   36   1.0   0.00    0.0    0.000000    0.337247    0.081423
   553   36   1.0   0.00    0.0    0.000000    0.102682    0.117736
   554   36   1.0   0.00    0.0    0.000000    0.115088    0.108089
   555   36   1.0   0.00    0.0    0.000000    0.127674    0.104158
   556   36   1.0   0.00    0.0    0.000000    0.125687    0.118344
   557   36   1.0   0.00    0.0    0.000000    0.114470    0.119156
   558   36   1.0   0.00    0.0    0.000000    0.125865    0.107896
   559   36   1.0   0.00    0.0    0.000000    0.114174    0.113620
   560   36   1.0   0.00    0.0    0.000000    0.115289    0.115300
   561   36   1.0   0.00    0.0    0.000000    0.115413    0.118504
   562   37   7.0   0.45    0.9   -0.004288   -0.106348   -0.271880
   563   37   6.0   1.32    2.3    0.017396   -1.374792   -0.181399
   564   38   6.0   0.05    0.1   -0.001400    1.130879    0.520472
   565   38   8.0   9.40   20.6    0.138856   -0.685743   -0.642850
   566   37   1.0   0.00    0.0    0.000000    0.271525    0.254108
   567   37   1.0   0.00    0.0    0.000000    0.346838    0.140261
   568   37   1.0   0.00    0.0    0.000000    0.345562    0.119522
   569   38   7.0   0.46    0.9   -0.007294   -0.079116   -0.216896
   570   38   6.0   3.69    6.5   -0.019615   -1.123658   -0.053188
   571   39   6.0   0.00    0.0    0.000000    1.105383    0.530639
   572   39   8.0   8.28   18.1    0.105108   -0.641410   -0.623203
   573   38   6.0   2.38    4.2    0.025309   -0.199450   -0.329097
   574   38   6.0   2.17    3.8    0.030958    0.875265    0.865263
   575   38   8.0  21.94   48.0    0.414871   -0.872868   -0.881439
   576   38   8.0  13.95   30.5    0.298320   -0.860195   -0.842599
   577   38   1.0   0.00    0.0    0.000000    0.250513    0.240300
   578   38   1.0   0.00    0.0    0.000000    0.338411    0.119014
   579   38   1.0   0.00    0.0    0.000000    0.122238    0.109227
   580   38   1.0   0.00    0.0    0.000000    0.140700    0.122082
   581   39   7.0   5.48   10.7   -0.098991   -0.296881   -0.249240
   582   39   6.0   3.99    7.0   -0.048630   -0.005421    0.012909
   583   39   6.0  16.75   29.6   -0.103301    0.344714    0.344618
   584   39   8.0  21.51   47.0    0.143152   -0.426210   -0.443745
   585   39   6.0  12.22   21.5   -0.060248   -0.196188   -0.198935
   586   39   6.0   0.67    1.2    0.004911    0.031963    0.049242
   587   39   6.0  14.95   26.4   -0.012910   -0.129495   -0.131454
   588   39   6.0   9.24   16.3   -0.020995   -0.153456   -0.145316
   589   39   6.0  15.49   27.3   -0.012682   -0.100133   -0.103154
   590   39   6.0   5.58    9.8    0.001051   -0.102889   -0.110908
   591   39   6.0   4.22    7.4    0.006607   -0.113051   -0.118568
   592   39   1.0   0.00    0.0    0.000000    0.076387    0.067469
   593   39   1.0   0.00    0.0    0.000000    0.266135    0.240666
   594   39   1.0   0.00    0.0    0.000000    0.146339    0.147359
   595   39   1.0   0.00    0.0    0.000000    0.115097    0.108299
   596   39   1.0   0.00    0.0    0.000000    0.124082    0.117707
   597   39   1.0   0.00    0.0    0.000000    0.114661    0.113394
   598   39   1.0   0.00    0.0    0.000000    0.112697    0.107028
   599   39   1.0   0.00    0.0    0.000000    0.114519    0.112613
   600   39   1.0   0.00    0.0    0.000000    0.117912    0.113070
   601   39   1.0   0.00    0.0    0.000000    0.115507    0.113469
   602   40   8.0  18.44   40.3   -0.158939   -0.755547   -0.753476
   603   40   1.0   0.00    0.0    0.000000    0.373834    0.373836
   604   40   1.0   0.00    0.0    0.000000    0.381713    0.381829
   605   41   6.0   9.21   16.2   -0.029181   -0.280076   -0.280951
   606   41   6.0   0.12    0.2    0.000064    0.074952    0.077378
   607   41   6.0   0.77    1.4    0.004297   -0.287587   -0.288394
   608   41   6.0   0.64    1.1    0.002837    0.180476    0.179691
   609   41   7.0   0.00    0.0    0.000000   -0.397410   -0.395508
   610   41   7.0   0.42    0.8   -0.008603    0.074205    0.050472
   611   41   6.0   0.45    0.8    0.002697   -0.022641   -0.022426
   612   41   6.0   0.00    0.0   -0.000217   -0.091077   -0.094340
   613   41   6.0   0.00    0.0    0.000000   -0.180418   -0.181088
   614   41   6.0   6.95   12.3   -0.023654   -0.087983   -0.088446
   615   41   6.0   0.40    0.7   -0.001624   -0.189158   -0.190153
   616   41   6.0   0.25    0.4   -0.002697    0.300748    0.301126
   617   41   8.0   0.00    0.0    0.000000   -0.312027   -0.311797
   618   41   6.0   0.51    0.9   -0.015232    0.167856    0.166848
   619   41   6.0   7.85   13.8   -0.046756   -0.319143   -0.319720
   620   41   6.0   0.00    0.0    0.000000   -0.033200   -0.031483
   621   41   6.0   4.30    7.6   -0.093065   -0.059354   -0.057963
   622   41   7.0  20.26   39.7   -0.455698   -0.051206   -0.075821
   623   41   6.0   0.15    0.3   -0.007572   -0.106113   -0.104303
   624   41   6.0   6.04   10.7   -0.029575   -0.090343   -0.091535
   625   41   6.0   1.28    2.3    0.003705   -0.213375   -0.216593
   626   41   6.0   0.99    1.8   -0.005220    0.411517    0.411421
   627   41   6.0   4.42    7.8   -0.020170   -0.284952   -0.285314
   628   41   6.0   2.64    4.7   -0.017234    0.404816    0.404747
   629   41   6.0   0.04    0.1    0.000169    1.027218    1.027281
   630   41   9.0   0.04    0.1    0.000886   -0.261557   -0.261647
   631   41   9.0   5.58   13.7    0.025246   -0.262353   -0.262733
   632   41   9.0   5.43   13.3    0.047412   -0.343075   -0.343034
   633   41   9.0  13.22   32.5    0.072233   -0.356320   -0.356548
   634   41   9.0   5.65   13.9    0.034588   -0.352573   -0.352457
   635   41   1.0   0.00    0.0    0.000000    0.265056    0.273523
   636   41   1.0   0.00    0.0    0.000000    0.113271    0.112752
   637   41   1.0   0.00    0.0    0.000000    0.126417    0.126495
   638   41   1.0   0.00    0.0    0.000000    0.077963    0.077410
   639   41   1.0   0.00    0.0    0.000000    0.120363    0.121142
   640   41   1.0   0.00    0.0    0.000000    0.143649    0.144828
   641   41   1.0   0.00    0.0    0.000000    0.141125    0.140672
   642   41   1.0   0.00    0.0    0.000000    0.125028    0.124241
   643   41   1.0   0.00    0.0    0.000000    0.116029    0.117513
   644   41   1.0   0.00    0.0    0.000000    0.196797    0.196330
   645   41   1.0   0.00    0.0    0.000000    0.172100    0.172008
   646   41   1.0   0.00    0.0    0.000000    0.101207    0.099138
   647   41   1.0   0.00    0.0    0.000000    0.109490    0.107237
   648   41   1.0   0.00    0.0    0.000000    0.286745    0.291434
   649   41   1.0   0.00    0.0    0.000000    0.280174    0.279592
   650   41   1.0   0.00    0.0    0.000000    0.272038    0.271351
   651   41   1.0   0.00    0.0    0.000000    0.086128    0.084594
   652   41   1.0   0.00    0.0    0.000000    0.103714    0.103046
   653   41   1.0   0.00    0.0    0.000000    0.102860    0.102677

 Done with FMO properties.
 CPU     0: STEP CPU TIME=     0.01 TOTAL CPU TIME=         18.5 (      0.3 MIN)
 TOTAL WALL CLOCK TIME=         20.9 SECONDS, CPU UTILIZATION IS    88.70%
 CPU     0: STEP CPU TIME=     0.00 TOTAL CPU TIME=         18.5 (      0.3 MIN)
 TOTAL WALL CLOCK TIME=         20.9 SECONDS, CPU UTILIZATION IS    88.70%
 RETURNED IN CORE 2E INTEGRAL BUFFER.


 Total timing statistics in pairs (CPU,wall) for each rank, sec

    Rank   total     SCF    corr     DFT    CPHF     EFP    solv     ESP    geom
 -------------------------------------------------------------------------------
       1      18.5      6.3      0.0      0.0    0.0   0.0    0.2     0.6    0.0
       1      20.9      6.6      0.0      0.0    0.0   0.0    0.3     0.4    0.0
       2      15.9      5.0      0.0      0.0    0.0   0.0    0.2     0.6    0.0
       2      20.9      6.5      0.0      0.0    0.0   0.0    0.4     0.4    0.0
averaged      17.2      5.6      0.0      0.0    0.0   0.0    0.2     0.6    0.0
averaged      20.9      6.6      0.0      0.0    0.0   0.0    0.4     0.4    0.0

  FMO  timing statistics in pairs (CPU,wall) for each rank, sec

    Rank  FMOini FMOscf1  FMOdm1 FMOsyn1 FMOscf2  FMOes2 FMOsyn2 FMOscf3 FMOsyn3
 -------------------------------------------------------------------------------
       1    0.4      10.5    0.0    0.0       6.6       0.1    0.0    0.0    0.0
       1    0.4      10.6    0.0    0.0       6.8       0.0    0.0    0.0    0.0
       2    0.3      10.0    0.0    0.0       5.5       0.0    0.0    0.0    0.0
       2    0.4      10.6    0.0    0.0       6.8       0.0    0.0    0.0    0.0
averaged    0.4      10.3    0.0    0.0       6.1       0.0    0.0    0.0    0.0
averaged    0.4      10.6    0.0    0.0       6.8       0.0    0.0    0.0    0.0

   1 warning(s) detected.
     A line exceeding 80 characters begins with " !*** INPUT generate".
 There may be a problem in your input file.

             13687256  WORDS OF DYNAMIC MEMORY USED
 EXECUTION OF GAMESS TERMINATED NORMALLY Mon Nov 11 19:29:23 2024
 DDI: 263640 bytes (0.3 MB / 0 MWords) used by master data server.

 ----------------------------------------
 CPU timing information for all processes
 ========================================
 0: 17.298 + 1.237 = 18.535
 1: 15.457 + 0.496 = 15.954
 ----------------------------------------
 ddikick.x: exited gracefully.
unset echo
----- accounting info -----
Files used on the master node gpu-31.cluster.lifesci.dundee.ac.uk were:
-rwx------ 1 2448959 lsd   57996 Nov 11 19:29 /tmp/2029101.1.ddu.q/7JY4_W47_A_702_FMO_5_H.F05*
-rw-r--r-- 1 2448959 lsd     839 Nov 11 19:29 /tmp/2029101.1.ddu.q/7JY4_W47_A_702_FMO_5_H.F06.001
-rw-r--r-- 1 2448959 lsd  119498 Nov 11 19:29 /tmp/2029101.1.ddu.q/7JY4_W47_A_702_FMO_5_H.F07
-rw-r--r-- 1 2448959 lsd       0 Nov 11 19:29 /tmp/2029101.1.ddu.q/7JY4_W47_A_702_FMO_5_H.F07.001
-rw-r--r-- 1 2448959 lsd   65440 Nov 11 19:29 /tmp/2029101.1.ddu.q/7JY4_W47_A_702_FMO_5_H.F10.000
-rw-r--r-- 1 2448959 lsd       0 Nov 11 19:29 /tmp/2029101.1.ddu.q/7JY4_W47_A_702_FMO_5_H.F26.000
-rw-r--r-- 1 2448959 lsd       0 Nov 11 19:29 /tmp/2029101.1.ddu.q/7JY4_W47_A_702_FMO_5_H.F26.001
-rw-r--r-- 1 2448959 lsd       0 Nov 11 19:29 /tmp/2029101.1.ddu.q/7JY4_W47_A_702_FMO_5_H.F27.000
-rw-r--r-- 1 2448959 lsd       0 Nov 11 19:29 /tmp/2029101.1.ddu.q/7JY4_W47_A_702_FMO_5_H.F27.001
-rw-r--r-- 1 2448959 lsd 2277376 Nov 11 19:29 /tmp/2029101.1.ddu.q/7JY4_W47_A_702_FMO_5_H.F40.000
-rw-r--r-- 1 2448959 lsd 2277376 Nov 11 19:29 /tmp/2029101.1.ddu.q/7JY4_W47_A_702_FMO_5_H.F40.001
ls: No match.
ls: No match.
ls: No match.
Mon 11 Nov 19:29:27 GMT 2024
0.207u 0.257s 0:25.42 1.7%	0+0k 120+592io 0pf+0w
